<?xml version="1.0" encoding="UTF-8"?>

<!-- generated on 06/24/18 02:13:51 by Eclipse SUMO Version v0_32_0+1428-4ab3f27cbd
<configuration xmlns:xsi="http://www.w3.org/2001/XMLSchema-instance" xsi:noNamespaceSchemaLocation="http://sumo.dlr.de/xsd/sumoConfiguration.xsd">

    <input>
        <net-file value="C:\Users\user\Desktop\btw\SummitBTW\simulator/examples/data/cross/cross.net.xml"/>
        <route-files value="C:\Users\user\Desktop\btw\SummitBTW\simulator/examples/data/cross/routes.rou.alt.xml"/>
        <additional-files value="C:\Users\user\Desktop\btw\SummitBTW\simulator/examples/data/cross/e2.add.xml"/>
    </input>

    <output>
        <tripinfo-output value="./temp_outputs/StaticScheduler"/>
    </output>

    <traci_server>
        <remote-port value="64594"/>
    </traci_server>

</configuration>
-->

<tripinfos xmlns:xsi="http://www.w3.org/2001/XMLSchema-instance" xsi:noNamespaceSchemaLocation="http://sumo.dlr.de/xsd/tripinfo_file.xsd">
    <tripinfo id="1" depart="1.00" departLane="54o_0" departPos="5.10" departSpeed="0.00" departDelay="0.00" arrival="5.00" arrivalLane="54i_0" arrivalPos="10.00" arrivalSpeed="8.51" duration="4.00" routeLength="19.72" waitingTime="0.00" waitingCount="0" stopTime="0.00" timeLoss="2.87" rerouteNo="0" devices="tripinfo_1" vType="DEFAULT_VEHTYPE" speedFactor="1.00" vaporized=""/>
    <tripinfo id="5" depart="5.00" departLane="52o_0" departPos="5.10" departSpeed="0.00" departDelay="1.00" arrival="9.00" arrivalLane="52i_0" arrivalPos="10.00" arrivalSpeed="8.39" duration="4.00" routeLength="19.72" waitingTime="0.00" waitingCount="0" stopTime="0.00" timeLoss="2.78" rerouteNo="0" devices="tripinfo_5" vType="DEFAULT_VEHTYPE" speedFactor="1.00" vaporized=""/>
    <tripinfo id="17" depart="12.00" departLane="51o_0" departPos="5.10" departSpeed="0.00" departDelay="0.00" arrival="17.00" arrivalLane="51i_0" arrivalPos="10.00" arrivalSpeed="9.71" duration="5.00" routeLength="19.72" waitingTime="0.00" waitingCount="0" stopTime="0.00" timeLoss="3.39" rerouteNo="0" devices="tripinfo_17" vType="DEFAULT_VEHTYPE" speedFactor="1.00" vaporized=""/>
    <tripinfo id="18" depart="13.00" departLane="53o_0" departPos="5.10" departSpeed="0.00" departDelay="0.00" arrival="18.00" arrivalLane="53i_0" arrivalPos="10.00" arrivalSpeed="8.80" duration="5.00" routeLength="19.72" waitingTime="0.00" waitingCount="0" stopTime="0.00" timeLoss="3.48" rerouteNo="0" devices="tripinfo_18" vType="DEFAULT_VEHTYPE" speedFactor="1.00" vaporized=""/>
    <tripinfo id="20" depart="16.00" departLane="53o_0" departPos="5.10" departSpeed="0.00" departDelay="0.00" arrival="20.00" arrivalLane="53i_0" arrivalPos="10.00" arrivalSpeed="7.92" duration="4.00" routeLength="19.72" waitingTime="0.00" waitingCount="0" stopTime="0.00" timeLoss="2.78" rerouteNo="0" devices="tripinfo_20" vType="DEFAULT_VEHTYPE" speedFactor="1.00" vaporized=""/>
    <tripinfo id="23" depart="20.00" departLane="51o_0" departPos="5.10" departSpeed="0.00" departDelay="4.00" arrival="24.00" arrivalLane="51i_0" arrivalPos="10.00" arrivalSpeed="8.44" duration="4.00" routeLength="19.72" waitingTime="0.00" waitingCount="0" stopTime="0.00" timeLoss="2.79" rerouteNo="0" devices="tripinfo_23" vType="DEFAULT_VEHTYPE" speedFactor="1.00" vaporized=""/>
    <tripinfo id="28" depart="22.00" departLane="52o_0" departPos="5.10" departSpeed="0.00" departDelay="2.00" arrival="26.00" arrivalLane="52i_0" arrivalPos="10.00" arrivalSpeed="7.82" duration="4.00" routeLength="19.72" waitingTime="0.00" waitingCount="0" stopTime="0.00" timeLoss="2.86" rerouteNo="0" devices="tripinfo_28" vType="DEFAULT_VEHTYPE" speedFactor="1.00" vaporized=""/>
    <tripinfo id="33" depart="23.00" departLane="51o_0" departPos="5.10" departSpeed="0.00" departDelay="0.00" arrival="28.00" arrivalLane="51i_0" arrivalPos="10.00" arrivalSpeed="9.60" duration="5.00" routeLength="19.72" waitingTime="0.00" waitingCount="0" stopTime="0.00" timeLoss="3.44" rerouteNo="0" devices="tripinfo_33" vType="DEFAULT_VEHTYPE" speedFactor="1.00" vaporized=""/>
    <tripinfo id="29" depart="25.00" departLane="52o_0" departPos="5.10" departSpeed="0.00" departDelay="5.00" arrival="30.00" arrivalLane="52i_0" arrivalPos="10.00" arrivalSpeed="8.59" duration="5.00" routeLength="19.72" waitingTime="0.00" waitingCount="0" stopTime="0.00" timeLoss="3.51" rerouteNo="0" devices="tripinfo_29" vType="DEFAULT_VEHTYPE" speedFactor="1.00" vaporized=""/>
    <tripinfo id="38" depart="29.00" departLane="51o_0" departPos="5.10" departSpeed="0.00" departDelay="3.00" arrival="33.00" arrivalLane="51i_0" arrivalPos="10.00" arrivalSpeed="8.17" duration="4.00" routeLength="19.72" waitingTime="0.00" waitingCount="0" stopTime="0.00" timeLoss="2.77" rerouteNo="0" devices="tripinfo_38" vType="DEFAULT_VEHTYPE" speedFactor="1.00" vaporized=""/>
    <tripinfo id="34" depart="31.00" departLane="52o_0" departPos="5.10" departSpeed="0.00" departDelay="8.00" arrival="36.00" arrivalLane="52i_0" arrivalPos="10.00" arrivalSpeed="9.14" duration="5.00" routeLength="19.72" waitingTime="0.00" waitingCount="0" stopTime="0.00" timeLoss="3.51" rerouteNo="0" devices="tripinfo_34" vType="DEFAULT_VEHTYPE" speedFactor="1.00" vaporized=""/>
    <tripinfo id="43" depart="32.00" departLane="53o_0" departPos="5.10" departSpeed="0.00" departDelay="2.00" arrival="37.00" arrivalLane="53i_0" arrivalPos="10.00" arrivalSpeed="9.77" duration="5.00" routeLength="19.72" waitingTime="0.00" waitingCount="0" stopTime="0.00" timeLoss="3.38" rerouteNo="0" devices="tripinfo_43" vType="DEFAULT_VEHTYPE" speedFactor="1.00" vaporized=""/>
    <tripinfo id="36" depart="34.00" departLane="52o_0" departPos="5.10" departSpeed="0.00" departDelay="8.00" arrival="38.00" arrivalLane="52i_0" arrivalPos="10.00" arrivalSpeed="7.42" duration="4.00" routeLength="19.72" waitingTime="0.00" waitingCount="0" stopTime="0.00" timeLoss="2.83" rerouteNo="0" devices="tripinfo_36" vType="DEFAULT_VEHTYPE" speedFactor="1.00" vaporized=""/>
    <tripinfo id="49" depart="36.00" departLane="51o_0" departPos="5.10" departSpeed="0.00" departDelay="0.00" arrival="41.00" arrivalLane="51i_0" arrivalPos="10.00" arrivalSpeed="9.95" duration="5.00" routeLength="19.72" waitingTime="0.00" waitingCount="0" stopTime="0.00" timeLoss="3.35" rerouteNo="0" devices="tripinfo_49" vType="DEFAULT_VEHTYPE" speedFactor="1.00" vaporized=""/>
    <tripinfo id="58" depart="41.00" departLane="53o_0" departPos="5.10" departSpeed="0.00" departDelay="0.00" arrival="45.00" arrivalLane="53i_0" arrivalPos="10.00" arrivalSpeed="9.19" duration="4.00" routeLength="19.72" waitingTime="0.00" waitingCount="0" stopTime="0.00" timeLoss="2.74" rerouteNo="0" devices="tripinfo_58" vType="DEFAULT_VEHTYPE" speedFactor="1.00" vaporized=""/>
    <tripinfo id="60" depart="44.00" departLane="52o_0" departPos="5.10" departSpeed="0.00" departDelay="0.00" arrival="49.00" arrivalLane="52i_0" arrivalPos="10.00" arrivalSpeed="8.64" duration="5.00" routeLength="19.72" waitingTime="0.00" waitingCount="0" stopTime="0.00" timeLoss="3.56" rerouteNo="0" devices="tripinfo_60" vType="DEFAULT_VEHTYPE" speedFactor="1.00" vaporized=""/>
    <tripinfo id="64" depart="45.00" departLane="51o_0" departPos="5.10" departSpeed="0.00" departDelay="0.00" arrival="49.00" arrivalLane="51i_0" arrivalPos="10.00" arrivalSpeed="7.83" duration="4.00" routeLength="19.72" waitingTime="0.00" waitingCount="0" stopTime="0.00" timeLoss="2.81" rerouteNo="0" devices="tripinfo_64" vType="DEFAULT_VEHTYPE" speedFactor="1.00" vaporized=""/>
    <tripinfo id="63" depart="47.00" departLane="52o_0" departPos="5.10" departSpeed="0.00" departDelay="2.00" arrival="52.00" arrivalLane="52i_0" arrivalPos="10.00" arrivalSpeed="8.15" duration="5.00" routeLength="19.72" waitingTime="0.00" waitingCount="0" stopTime="0.00" timeLoss="3.54" rerouteNo="0" devices="tripinfo_63" vType="DEFAULT_VEHTYPE" speedFactor="1.00" vaporized=""/>
    <tripinfo id="68" depart="48.00" departLane="51o_0" departPos="5.10" departSpeed="0.00" departDelay="1.00" arrival="53.00" arrivalLane="51i_0" arrivalPos="10.00" arrivalSpeed="9.05" duration="5.00" routeLength="19.72" waitingTime="0.00" waitingCount="0" stopTime="0.00" timeLoss="3.39" rerouteNo="0" devices="tripinfo_68" vType="DEFAULT_VEHTYPE" speedFactor="1.00" vaporized=""/>
    <tripinfo id="70" depart="50.00" departLane="52o_0" departPos="5.10" departSpeed="0.00" departDelay="2.00" arrival="54.00" arrivalLane="52i_0" arrivalPos="10.00" arrivalSpeed="8.71" duration="4.00" routeLength="19.72" waitingTime="0.00" waitingCount="0" stopTime="0.00" timeLoss="2.83" rerouteNo="0" devices="tripinfo_70" vType="DEFAULT_VEHTYPE" speedFactor="1.00" vaporized=""/>
    <tripinfo id="82" depart="60.00" departLane="54o_0" departPos="5.10" departSpeed="0.00" departDelay="0.00" arrival="64.00" arrivalLane="54i_0" arrivalPos="10.00" arrivalSpeed="8.01" duration="4.00" routeLength="19.72" waitingTime="0.00" waitingCount="0" stopTime="0.00" timeLoss="2.81" rerouteNo="0" devices="tripinfo_82" vType="DEFAULT_VEHTYPE" speedFactor="1.00" vaporized=""/>
    <tripinfo id="89" depart="63.00" departLane="51o_0" departPos="5.10" departSpeed="0.00" departDelay="0.00" arrival="68.00" arrivalLane="51i_0" arrivalPos="10.00" arrivalSpeed="9.08" duration="5.00" routeLength="19.72" waitingTime="0.00" waitingCount="0" stopTime="0.00" timeLoss="3.50" rerouteNo="0" devices="tripinfo_89" vType="DEFAULT_VEHTYPE" speedFactor="1.00" vaporized=""/>
    <tripinfo id="92" depart="66.00" departLane="54o_0" departPos="5.10" departSpeed="0.00" departDelay="0.00" arrival="70.00" arrivalLane="54i_0" arrivalPos="10.00" arrivalSpeed="8.89" duration="4.00" routeLength="19.72" waitingTime="0.00" waitingCount="0" stopTime="0.00" timeLoss="2.71" rerouteNo="0" devices="tripinfo_92" vType="DEFAULT_VEHTYPE" speedFactor="1.00" vaporized=""/>
    <tripinfo id="95" depart="70.00" departLane="54o_0" departPos="5.10" departSpeed="0.00" departDelay="2.00" arrival="74.00" arrivalLane="54i_0" arrivalPos="10.00" arrivalSpeed="8.75" duration="4.00" routeLength="19.72" waitingTime="0.00" waitingCount="0" stopTime="0.00" timeLoss="2.74" rerouteNo="0" devices="tripinfo_95" vType="DEFAULT_VEHTYPE" speedFactor="1.00" vaporized=""/>
    <tripinfo id="98" depart="73.00" departLane="53o_0" departPos="5.10" departSpeed="0.00" departDelay="1.00" arrival="78.00" arrivalLane="53i_0" arrivalPos="10.00" arrivalSpeed="9.96" duration="5.00" routeLength="19.72" waitingTime="0.00" waitingCount="0" stopTime="0.00" timeLoss="3.42" rerouteNo="0" devices="tripinfo_98" vType="DEFAULT_VEHTYPE" speedFactor="1.00" vaporized=""/>
    <tripinfo id="104" depart="74.00" departLane="54o_0" departPos="5.10" departSpeed="0.00" departDelay="0.00" arrival="79.00" arrivalLane="54i_0" arrivalPos="10.00" arrivalSpeed="9.46" duration="5.00" routeLength="19.72" waitingTime="0.00" waitingCount="0" stopTime="0.00" timeLoss="3.45" rerouteNo="0" devices="tripinfo_104" vType="DEFAULT_VEHTYPE" speedFactor="1.00" vaporized=""/>
    <tripinfo id="2" depart="1.00" departLane="51o_0" departPos="5.10" departSpeed="0.00" departDelay="0.00" arrival="88.00" arrivalLane="52i_0" arrivalPos="10.00" arrivalSpeed="12.05" duration="87.00" routeLength="1015.10" waitingTime="0.00" waitingCount="0" stopTime="0.00" timeLoss="15.59" rerouteNo="0" devices="tripinfo_2" vType="DEFAULT_VEHTYPE" speedFactor="1.00" vaporized=""/>
    <tripinfo id="3" depart="2.00" departLane="52o_0" departPos="5.10" departSpeed="0.00" departDelay="0.00" arrival="88.00" arrivalLane="51i_0" arrivalPos="10.00" arrivalSpeed="12.93" duration="86.00" routeLength="1015.10" waitingTime="0.00" waitingCount="0" stopTime="0.00" timeLoss="14.44" rerouteNo="0" devices="tripinfo_3" vType="DEFAULT_VEHTYPE" speedFactor="1.00" vaporized=""/>
    <tripinfo id="8" depart="6.00" departLane="51o_0" departPos="5.10" departSpeed="0.00" departDelay="0.00" arrival="90.00" arrivalLane="52i_0" arrivalPos="10.00" arrivalSpeed="12.42" duration="84.00" routeLength="1015.10" waitingTime="0.00" waitingCount="0" stopTime="0.00" timeLoss="12.61" rerouteNo="0" devices="tripinfo_8" vType="DEFAULT_VEHTYPE" speedFactor="1.00" vaporized=""/>
    <tripinfo id="19" depart="17.00" departLane="51o_0" departPos="5.10" departSpeed="0.00" departDelay="1.00" arrival="98.00" arrivalLane="52i_0" arrivalPos="10.00" arrivalSpeed="12.54" duration="81.00" routeLength="1015.10" waitingTime="0.00" waitingCount="0" stopTime="0.00" timeLoss="9.37" rerouteNo="0" devices="tripinfo_19" vType="DEFAULT_VEHTYPE" speedFactor="1.00" vaporized=""/>
    <tripinfo id="27" depart="19.00" departLane="52o_0" departPos="5.10" departSpeed="0.00" departDelay="0.00" arrival="100.00" arrivalLane="51i_0" arrivalPos="10.00" arrivalSpeed="12.90" duration="81.00" routeLength="1015.10" waitingTime="0.00" waitingCount="0" stopTime="0.00" timeLoss="9.27" rerouteNo="0" devices="tripinfo_27" vType="DEFAULT_VEHTYPE" speedFactor="1.00" vaporized=""/>
    <tripinfo id="35" depart="26.00" departLane="51o_0" departPos="5.10" departSpeed="0.00" departDelay="2.00" arrival="106.00" arrivalLane="52i_0" arrivalPos="10.00" arrivalSpeed="11.07" duration="80.00" routeLength="1015.10" waitingTime="0.00" waitingCount="0" stopTime="0.00" timeLoss="8.39" rerouteNo="0" devices="tripinfo_35" vType="DEFAULT_VEHTYPE" speedFactor="1.00" vaporized=""/>
    <tripinfo id="30" depart="28.00" departLane="52o_0" departPos="5.10" departSpeed="0.00" departDelay="7.00" arrival="109.00" arrivalLane="51i_0" arrivalPos="10.00" arrivalSpeed="11.69" duration="81.00" routeLength="1015.10" waitingTime="0.00" waitingCount="0" stopTime="0.00" timeLoss="8.88" rerouteNo="0" devices="tripinfo_30" vType="DEFAULT_VEHTYPE" speedFactor="1.00" vaporized=""/>
    <tripinfo id="39" depart="32.00" departLane="51o_0" departPos="5.10" departSpeed="0.00" departDelay="4.00" arrival="112.00" arrivalLane="52i_0" arrivalPos="10.00" arrivalSpeed="12.79" duration="80.00" routeLength="1015.10" waitingTime="0.00" waitingCount="0" stopTime="0.00" timeLoss="8.31" rerouteNo="0" devices="tripinfo_39" vType="DEFAULT_VEHTYPE" speedFactor="1.00" vaporized=""/>
    <tripinfo id="4" depart="4.00" departLane="54o_0" departPos="5.10" departSpeed="0.00" departDelay="2.00" arrival="125.00" arrivalLane="53i_0" arrivalPos="10.00" arrivalSpeed="12.02" duration="121.00" routeLength="1015.10" waitingTime="35.00" waitingCount="1" stopTime="0.00" timeLoss="49.26" rerouteNo="0" devices="tripinfo_4" vType="DEFAULT_VEHTYPE" speedFactor="1.00" vaporized=""/>
    <tripinfo id="41" depart="29.00" departLane="53o_0" departPos="5.10" departSpeed="0.00" departDelay="0.00" arrival="125.00" arrivalLane="54i_0" arrivalPos="10.00" arrivalSpeed="13.04" duration="96.00" routeLength="1015.10" waitingTime="10.00" waitingCount="1" stopTime="0.00" timeLoss="23.85" rerouteNo="0" devices="tripinfo_41" vType="DEFAULT_VEHTYPE" speedFactor="1.00" vaporized=""/>
    <tripinfo id="51" depart="36.00" departLane="54o_0" departPos="5.10" departSpeed="0.00" departDelay="0.00" arrival="127.00" arrivalLane="53i_0" arrivalPos="10.00" arrivalSpeed="13.32" duration="91.00" routeLength="1015.10" waitingTime="4.00" waitingCount="1" stopTime="0.00" timeLoss="19.33" rerouteNo="0" devices="tripinfo_51" vType="DEFAULT_VEHTYPE" speedFactor="1.00" vaporized=""/>
    <tripinfo id="73" depart="50.00" departLane="54o_0" departPos="5.10" departSpeed="0.00" departDelay="0.00" arrival="130.00" arrivalLane="53i_0" arrivalPos="10.00" arrivalSpeed="10.37" duration="80.00" routeLength="1015.10" waitingTime="0.00" waitingCount="0" stopTime="0.00" timeLoss="8.29" rerouteNo="0" devices="tripinfo_73" vType="DEFAULT_VEHTYPE" speedFactor="1.00" vaporized=""/>
    <tripinfo id="76" depart="55.00" departLane="53o_0" departPos="5.10" departSpeed="0.00" departDelay="0.00" arrival="136.00" arrivalLane="54i_0" arrivalPos="10.00" arrivalSpeed="13.13" duration="81.00" routeLength="1015.10" waitingTime="0.00" waitingCount="0" stopTime="0.00" timeLoss="9.13" rerouteNo="0" devices="tripinfo_76" vType="DEFAULT_VEHTYPE" speedFactor="1.00" vaporized=""/>
    <tripinfo id="77" depart="58.00" departLane="53o_0" departPos="5.10" departSpeed="0.00" departDelay="2.00" arrival="139.00" arrivalLane="54i_0" arrivalPos="10.00" arrivalSpeed="12.28" duration="81.00" routeLength="1015.10" waitingTime="0.00" waitingCount="0" stopTime="0.00" timeLoss="9.19" rerouteNo="0" devices="tripinfo_77" vType="DEFAULT_VEHTYPE" speedFactor="1.00" vaporized=""/>
    <tripinfo id="84" depart="61.00" departLane="53o_0" departPos="5.10" departSpeed="0.00" departDelay="0.00" arrival="142.00" arrivalLane="54i_0" arrivalPos="10.00" arrivalSpeed="13.18" duration="81.00" routeLength="1015.10" waitingTime="0.00" waitingCount="0" stopTime="0.00" timeLoss="8.80" rerouteNo="0" devices="tripinfo_84" vType="DEFAULT_VEHTYPE" speedFactor="1.00" vaporized=""/>
    <tripinfo id="88" depart="64.00" departLane="53o_0" departPos="5.10" departSpeed="0.00" departDelay="2.00" arrival="144.00" arrivalLane="54i_0" arrivalPos="10.00" arrivalSpeed="11.62" duration="80.00" routeLength="1015.10" waitingTime="0.00" waitingCount="0" stopTime="0.00" timeLoss="8.12" rerouteNo="0" devices="tripinfo_88" vType="DEFAULT_VEHTYPE" speedFactor="1.00" vaporized=""/>
    <tripinfo id="90" depart="67.00" departLane="53o_0" departPos="5.10" departSpeed="0.00" departDelay="4.00" arrival="148.00" arrivalLane="54i_0" arrivalPos="10.00" arrivalSpeed="12.82" duration="81.00" routeLength="1015.10" waitingTime="0.00" waitingCount="0" stopTime="0.00" timeLoss="9.22" rerouteNo="0" devices="tripinfo_90" vType="DEFAULT_VEHTYPE" speedFactor="1.00" vaporized=""/>
    <tripinfo id="91" depart="70.00" departLane="53o_0" departPos="5.10" departSpeed="0.00" departDelay="5.00" arrival="150.00" arrivalLane="54i_0" arrivalPos="10.00" arrivalSpeed="13.15" duration="80.00" routeLength="1015.10" waitingTime="0.00" waitingCount="0" stopTime="0.00" timeLoss="8.35" rerouteNo="0" devices="tripinfo_91" vType="DEFAULT_VEHTYPE" speedFactor="1.00" vaporized=""/>
    <tripinfo id="57" depart="39.00" departLane="51o_0" departPos="5.10" departSpeed="0.00" departDelay="0.00" arrival="162.00" arrivalLane="52i_0" arrivalPos="10.00" arrivalSpeed="13.63" duration="123.00" routeLength="1015.10" waitingTime="38.00" waitingCount="1" stopTime="0.00" timeLoss="51.20" rerouteNo="0" devices="tripinfo_57" vType="DEFAULT_VEHTYPE" speedFactor="1.00" vaporized=""/>
    <tripinfo id="53" depart="37.00" departLane="52o_0" departPos="5.10" departSpeed="0.00" departDelay="1.00" arrival="162.00" arrivalLane="51i_0" arrivalPos="10.00" arrivalSpeed="11.89" duration="125.00" routeLength="1015.10" waitingTime="38.00" waitingCount="1" stopTime="0.00" timeLoss="53.26" rerouteNo="0" devices="tripinfo_53" vType="DEFAULT_VEHTYPE" speedFactor="1.00" vaporized=""/>
    <tripinfo id="97" depart="72.00" departLane="52o_0" departPos="5.10" departSpeed="0.00" departDelay="0.00" arrival="164.00" arrivalLane="51i_0" arrivalPos="10.00" arrivalSpeed="11.40" duration="92.00" routeLength="1015.10" waitingTime="4.00" waitingCount="1" stopTime="0.00" timeLoss="20.27" rerouteNo="0" devices="tripinfo_97" vType="DEFAULT_VEHTYPE" speedFactor="1.00" vaporized=""/>
    <tripinfo id="105" depart="75.00" departLane="52o_0" departPos="5.10" departSpeed="0.00" departDelay="1.00" arrival="166.00" arrivalLane="51i_0" arrivalPos="10.00" arrivalSpeed="12.49" duration="91.00" routeLength="1015.10" waitingTime="3.00" waitingCount="1" stopTime="0.00" timeLoss="19.26" rerouteNo="0" devices="tripinfo_105" vType="DEFAULT_VEHTYPE" speedFactor="1.00" vaporized=""/>
</tripinfos>
