<?xml version="1.0" encoding="UTF-8"?>

<!-- generated on 06/22/18 18:00:22 by Eclipse SUMO Version v0_32_0+1428-4ab3f27cbd
<configuration xmlns:xsi="http://www.w3.org/2001/XMLSchema-instance" xsi:noNamespaceSchemaLocation="http://sumo.dlr.de/xsd/sumoConfiguration.xsd">

    <input>
        <net-file value="C:\Users\user\Desktop\btw\SummitBTW\simulator/examples/data/city/city.net.xml"/>
        <route-files value="C:\Users\user\Desktop\btw\SummitBTW\simulator/examples/data/city/routes.rou.alt.xml"/>
        <additional-files value="C:\Users\user\Desktop\btw\SummitBTW\simulator/examples/data/city/e2.add.xml"/>
    </input>

    <output>
        <tripinfo-output value="./temp_outputs/StaticScheduler"/>
    </output>

    <traci_server>
        <remote-port value="60004"/>
    </traci_server>

</configuration>
-->

<tripinfos xmlns:xsi="http://www.w3.org/2001/XMLSchema-instance" xsi:noNamespaceSchemaLocation="http://sumo.dlr.de/xsd/tripinfo_file.xsd">
    <tripinfo id="17" depart="9.00" departLane="-11_0" departPos="5.10" departSpeed="0.00" departDelay="0.00" arrival="42.00" arrivalLane="7_2" arrivalPos="196.65" arrivalSpeed="13.10" duration="33.00" routeLength="372.42" waitingTime="0.00" waitingCount="0" stopTime="0.00" timeLoss="5.90" rerouteNo="0" devices="tripinfo_17" vType="DEFAULT_VEHTYPE" speedFactor="1.00" vaporized=""/>
    <tripinfo id="22" depart="12.00" departLane="-11_0" departPos="5.10" departSpeed="0.00" departDelay="1.00" arrival="45.00" arrivalLane="7_2" arrivalPos="196.65" arrivalSpeed="13.71" duration="33.00" routeLength="372.42" waitingTime="0.00" waitingCount="0" stopTime="0.00" timeLoss="5.54" rerouteNo="0" devices="tripinfo_22" vType="DEFAULT_VEHTYPE" speedFactor="1.00" vaporized=""/>
    <tripinfo id="28" depart="18.00" departLane="-11_0" departPos="5.10" departSpeed="0.00" departDelay="1.00" arrival="51.00" arrivalLane="7_2" arrivalPos="196.65" arrivalSpeed="13.37" duration="33.00" routeLength="372.42" waitingTime="0.00" waitingCount="0" stopTime="0.00" timeLoss="5.65" rerouteNo="0" devices="tripinfo_28" vType="DEFAULT_VEHTYPE" speedFactor="1.00" vaporized=""/>
    <tripinfo id="32" depart="21.00" departLane="-11_0" departPos="5.10" departSpeed="0.00" departDelay="1.00" arrival="53.00" arrivalLane="7_2" arrivalPos="196.65" arrivalSpeed="13.86" duration="32.00" routeLength="372.42" waitingTime="0.00" waitingCount="0" stopTime="0.00" timeLoss="4.52" rerouteNo="0" devices="tripinfo_32" vType="DEFAULT_VEHTYPE" speedFactor="1.00" vaporized=""/>
    <tripinfo id="2" depart="1.00" departLane="-25_0" departPos="5.10" departSpeed="0.00" departDelay="0.00" arrival="56.00" arrivalLane="7_0" arrivalPos="196.65" arrivalSpeed="13.51" duration="55.00" routeLength="600.43" waitingTime="1.00" waitingCount="1" stopTime="0.00" timeLoss="11.22" rerouteNo="0" devices="tripinfo_2" vType="DEFAULT_VEHTYPE" speedFactor="1.00" vaporized=""/>
    <tripinfo id="15" depart="8.00" departLane="-25_0" departPos="5.10" departSpeed="0.00" departDelay="0.00" arrival="62.00" arrivalLane="7_0" arrivalPos="196.65" arrivalSpeed="13.60" duration="54.00" routeLength="600.43" waitingTime="0.00" waitingCount="0" stopTime="0.00" timeLoss="10.81" rerouteNo="0" devices="tripinfo_15" vType="DEFAULT_VEHTYPE" speedFactor="1.00" vaporized=""/>
    <tripinfo id="3" depart="4.00" departLane="-222_0" departPos="5.10" departSpeed="0.00" departDelay="2.00" arrival="65.00" arrivalLane="224_1" arrivalPos="211.26" arrivalSpeed="12.83" duration="61.00" routeLength="355.83" waitingTime="26.00" waitingCount="1" stopTime="0.00" timeLoss="34.95" rerouteNo="0" devices="tripinfo_3" vType="DEFAULT_VEHTYPE" speedFactor="1.00" vaporized=""/>
    <tripinfo id="51" depart="31.00" departLane="-222_0" departPos="5.10" departSpeed="0.00" departDelay="0.00" arrival="67.00" arrivalLane="224_1" arrivalPos="211.26" arrivalSpeed="13.43" duration="36.00" routeLength="355.83" waitingTime="1.00" waitingCount="1" stopTime="0.00" timeLoss="9.85" rerouteNo="0" devices="tripinfo_51" vType="DEFAULT_VEHTYPE" speedFactor="1.00" vaporized=""/>
    <tripinfo id="59" depart="37.00" departLane="-7_0" departPos="5.10" departSpeed="0.00" departDelay="0.00" arrival="67.00" arrivalLane="11_0" arrivalPos="157.48" arrivalSpeed="13.48" duration="30.00" routeLength="360.53" waitingTime="0.00" waitingCount="0" stopTime="0.00" timeLoss="3.86" rerouteNo="0" devices="tripinfo_59" vType="DEFAULT_VEHTYPE" speedFactor="1.00" vaporized=""/>
    <tripinfo id="14" depart="9.00" departLane="-224_0" departPos="5.10" departSpeed="0.00" departDelay="1.00" arrival="71.00" arrivalLane="25_0" arrivalPos="204.27" arrivalSpeed="12.88" duration="62.00" routeLength="603.60" waitingTime="3.00" waitingCount="2" stopTime="0.00" timeLoss="18.36" rerouteNo="0" devices="tripinfo_14" vType="DEFAULT_VEHTYPE" speedFactor="1.00" vaporized=""/>
    <tripinfo id="39" depart="25.00" departLane="-25_0" departPos="5.10" departSpeed="0.00" departDelay="1.00" arrival="72.00" arrivalLane="222_0" arrivalPos="126.74" arrivalSpeed="13.14" duration="47.00" routeLength="531.15" waitingTime="0.00" waitingCount="0" stopTime="0.00" timeLoss="8.44" rerouteNo="0" devices="tripinfo_39" vType="DEFAULT_VEHTYPE" speedFactor="1.00" vaporized=""/>
    <tripinfo id="13" depart="8.00" departLane="-332_0" departPos="5.10" departSpeed="0.00" departDelay="1.00" arrival="76.00" arrivalLane="332_0" arrivalPos="153.41" arrivalSpeed="13.45" duration="68.00" routeLength="765.06" waitingTime="1.00" waitingCount="1" stopTime="0.00" timeLoss="12.02" rerouteNo="0" devices="tripinfo_13" vType="DEFAULT_VEHTYPE" speedFactor="1.00" vaporized=""/>
    <tripinfo id="0" depart="1.00" departLane="-220_0" departPos="5.10" departSpeed="0.00" departDelay="0.00" arrival="83.00" arrivalLane="7_0" arrivalPos="196.65" arrivalSpeed="12.62" duration="82.00" routeLength="807.97" waitingTime="8.00" waitingCount="2" stopTime="0.00" timeLoss="23.14" rerouteNo="0" devices="tripinfo_0" vType="DEFAULT_VEHTYPE" speedFactor="1.00" vaporized=""/>
    <tripinfo id="81" depart="53.00" departLane="-7_0" departPos="5.10" departSpeed="0.00" departDelay="0.00" arrival="84.00" arrivalLane="11_0" arrivalPos="157.48" arrivalSpeed="12.81" duration="31.00" routeLength="360.53" waitingTime="0.00" waitingCount="0" stopTime="0.00" timeLoss="4.84" rerouteNo="0" devices="tripinfo_81" vType="DEFAULT_VEHTYPE" speedFactor="1.00" vaporized=""/>
    <tripinfo id="94" depart="66.00" departLane="-220_0" departPos="5.10" departSpeed="0.00" departDelay="0.00" arrival="103.00" arrivalLane="222_1" arrivalPos="126.74" arrivalSpeed="13.06" duration="37.00" routeLength="345.73" waitingTime="4.00" waitingCount="1" stopTime="0.00" timeLoss="11.91" rerouteNo="0" devices="tripinfo_94" vType="DEFAULT_VEHTYPE" speedFactor="1.00" vaporized=""/>
    <tripinfo id="12" depart="10.00" departLane="-64_0" departPos="5.10" departSpeed="0.00" departDelay="4.00" arrival="106.00" arrivalLane="332_2" arrivalPos="153.41" arrivalSpeed="13.83" duration="96.00" routeLength="494.09" waitingTime="44.00" waitingCount="2" stopTime="0.00" timeLoss="60.33" rerouteNo="0" devices="tripinfo_12" vType="DEFAULT_VEHTYPE" speedFactor="1.00" vaporized=""/>
    <tripinfo id="4" depart="4.00" departLane="-25_0" departPos="5.10" departSpeed="0.00" departDelay="2.00" arrival="106.00" arrivalLane="11_0" arrivalPos="157.48" arrivalSpeed="13.00" duration="102.00" routeLength="579.43" waitingTime="50.00" waitingCount="1" stopTime="0.00" timeLoss="60.24" rerouteNo="0" devices="tripinfo_4" vType="DEFAULT_VEHTYPE" speedFactor="1.00" vaporized=""/>
    <tripinfo id="7" depart="5.00" departLane="-64_0" departPos="5.10" departSpeed="0.00" departDelay="0.00" arrival="107.00" arrivalLane="332_0" arrivalPos="153.41" arrivalSpeed="13.78" duration="102.00" routeLength="494.09" waitingTime="52.00" waitingCount="2" stopTime="0.00" timeLoss="65.48" rerouteNo="0" devices="tripinfo_7" vType="DEFAULT_VEHTYPE" speedFactor="1.00" vaporized=""/>
    <tripinfo id="18" depart="11.00" departLane="-25_0" departPos="5.10" departSpeed="0.00" departDelay="2.00" arrival="108.00" arrivalLane="11_0" arrivalPos="157.48" arrivalSpeed="13.42" duration="97.00" routeLength="579.43" waitingTime="45.00" waitingCount="1" stopTime="0.00" timeLoss="55.16" rerouteNo="0" devices="tripinfo_18" vType="DEFAULT_VEHTYPE" speedFactor="1.00" vaporized=""/>
    <tripinfo id="11" depart="6.00" departLane="-224_0" departPos="5.10" departSpeed="0.00" departDelay="0.00" arrival="110.00" arrivalLane="64_1" arrivalPos="130.26" arrivalSpeed="13.70" duration="104.00" routeLength="775.42" waitingTime="22.00" waitingCount="4" stopTime="0.00" timeLoss="47.40" rerouteNo="0" devices="tripinfo_11" vType="DEFAULT_VEHTYPE" speedFactor="1.00" vaporized=""/>
    <tripinfo id="31" depart="19.00" departLane="-25_0" departPos="5.10" departSpeed="0.00" departDelay="0.00" arrival="110.00" arrivalLane="11_0" arrivalPos="157.48" arrivalSpeed="13.18" duration="91.00" routeLength="579.43" waitingTime="31.00" waitingCount="2" stopTime="0.00" timeLoss="48.95" rerouteNo="0" devices="tripinfo_31" vType="DEFAULT_VEHTYPE" speedFactor="1.00" vaporized=""/>
    <tripinfo id="24" depart="13.00" departLane="-224_0" departPos="5.10" departSpeed="0.00" departDelay="0.00" arrival="112.00" arrivalLane="64_1" arrivalPos="130.26" arrivalSpeed="13.75" duration="99.00" routeLength="775.42" waitingTime="18.00" waitingCount="2" stopTime="0.00" timeLoss="42.30" rerouteNo="0" devices="tripinfo_24" vType="DEFAULT_VEHTYPE" speedFactor="1.00" vaporized=""/>
    <tripinfo id="45" depart="28.00" departLane="-7_0" departPos="5.10" departSpeed="0.00" departDelay="0.00" arrival="112.00" arrivalLane="25_2" arrivalPos="204.27" arrivalSpeed="12.86" duration="84.00" routeLength="629.15" waitingTime="19.00" waitingCount="2" stopTime="0.00" timeLoss="38.37" rerouteNo="0" devices="tripinfo_45" vType="DEFAULT_VEHTYPE" speedFactor="1.00" vaporized=""/>
    <tripinfo id="57" depart="38.00" departLane="-25_0" departPos="5.10" departSpeed="0.00" departDelay="2.00" arrival="112.00" arrivalLane="11_0" arrivalPos="157.48" arrivalSpeed="13.70" duration="74.00" routeLength="579.43" waitingTime="20.00" waitingCount="1" stopTime="0.00" timeLoss="31.90" rerouteNo="0" devices="tripinfo_57" vType="DEFAULT_VEHTYPE" speedFactor="1.00" vaporized=""/>
    <tripinfo id="114" depart="83.00" departLane="-220_0" departPos="5.10" departSpeed="0.00" departDelay="0.00" arrival="114.00" arrivalLane="222_1" arrivalPos="126.74" arrivalSpeed="12.67" duration="31.00" routeLength="345.73" waitingTime="0.00" waitingCount="0" stopTime="0.00" timeLoss="5.94" rerouteNo="0" devices="tripinfo_114" vType="DEFAULT_VEHTYPE" speedFactor="1.00" vaporized=""/>
    <tripinfo id="40" depart="25.00" departLane="-332_0" departPos="5.10" departSpeed="0.00" departDelay="0.00" arrival="118.00" arrivalLane="64_0" arrivalPos="130.26" arrivalSpeed="12.81" duration="93.00" routeLength="482.50" waitingTime="47.00" waitingCount="1" stopTime="0.00" timeLoss="58.26" rerouteNo="0" devices="tripinfo_40" vType="DEFAULT_VEHTYPE" speedFactor="1.00" vaporized=""/>
    <tripinfo id="34" depart="22.00" departLane="-25_0" departPos="5.10" departSpeed="0.00" departDelay="1.00" arrival="121.00" arrivalLane="332_0" arrivalPos="153.41" arrivalSpeed="13.08" duration="99.00" routeLength="787.59" waitingTime="24.00" waitingCount="2" stopTime="0.00" timeLoss="41.48" rerouteNo="0" devices="tripinfo_34" vType="DEFAULT_VEHTYPE" speedFactor="1.00" vaporized=""/>
    <tripinfo id="29" depart="18.00" departLane="-64_0" departPos="5.10" departSpeed="0.00" departDelay="0.00" arrival="123.00" arrivalLane="222_0" arrivalPos="126.74" arrivalSpeed="13.30" duration="105.00" routeLength="660.71" waitingTime="35.00" waitingCount="3" stopTime="0.00" timeLoss="57.30" rerouteNo="0" devices="tripinfo_29" vType="DEFAULT_VEHTYPE" speedFactor="1.00" vaporized=""/>
    <tripinfo id="116" depart="87.00" departLane="-224_0" departPos="5.10" departSpeed="0.00" departDelay="2.00" arrival="123.00" arrivalLane="220_2" arrivalPos="203.12" arrivalSpeed="12.90" duration="36.00" routeLength="429.78" waitingTime="0.00" waitingCount="0" stopTime="0.00" timeLoss="4.24" rerouteNo="0" devices="tripinfo_116" vType="DEFAULT_VEHTYPE" speedFactor="1.00" vaporized=""/>
    <tripinfo id="20" depart="13.00" departLane="-220_0" departPos="5.10" departSpeed="0.00" departDelay="3.00" arrival="128.00" arrivalLane="64_1" arrivalPos="130.26" arrivalSpeed="13.80" duration="115.00" routeLength="777.11" waitingTime="26.00" waitingCount="3" stopTime="0.00" timeLoss="58.64" rerouteNo="0" devices="tripinfo_20" vType="DEFAULT_VEHTYPE" speedFactor="1.00" vaporized=""/>
    <tripinfo id="129" depart="96.00" departLane="-11_0" departPos="5.10" departSpeed="0.00" departDelay="0.00" arrival="129.00" arrivalLane="7_2" arrivalPos="196.65" arrivalSpeed="12.82" duration="33.00" routeLength="372.42" waitingTime="0.00" waitingCount="0" stopTime="0.00" timeLoss="5.85" rerouteNo="0" devices="tripinfo_129" vType="DEFAULT_VEHTYPE" speedFactor="1.00" vaporized=""/>
    <tripinfo id="23" depart="15.00" departLane="-11_0" departPos="5.10" departSpeed="0.00" departDelay="4.00" arrival="139.00" arrivalLane="64_1" arrivalPos="130.26" arrivalSpeed="13.30" duration="124.00" routeLength="683.37" waitingTime="62.00" waitingCount="1" stopTime="0.00" timeLoss="73.99" rerouteNo="0" devices="tripinfo_23" vType="DEFAULT_VEHTYPE" speedFactor="1.00" vaporized=""/>
    <tripinfo id="63" depart="40.00" departLane="-332_0" departPos="5.10" departSpeed="0.00" departDelay="0.00" arrival="141.00" arrivalLane="25_1" arrivalPos="204.27" arrivalSpeed="12.78" duration="101.00" routeLength="787.85" waitingTime="31.00" waitingCount="1" stopTime="0.00" timeLoss="43.69" rerouteNo="0" devices="tripinfo_63" vType="DEFAULT_VEHTYPE" speedFactor="1.00" vaporized=""/>
    <tripinfo id="41" depart="26.00" departLane="-11_0" departPos="5.10" departSpeed="0.00" departDelay="0.00" arrival="143.00" arrivalLane="64_1" arrivalPos="130.26" arrivalSpeed="13.61" duration="117.00" routeLength="683.37" waitingTime="47.00" waitingCount="2" stopTime="0.00" timeLoss="67.51" rerouteNo="0" devices="tripinfo_41" vType="DEFAULT_VEHTYPE" speedFactor="1.00" vaporized=""/>
    <tripinfo id="117" depart="85.00" departLane="-11_0" departPos="5.10" departSpeed="0.00" departDelay="0.00" arrival="146.00" arrivalLane="25_2" arrivalPos="204.27" arrivalSpeed="13.20" duration="61.00" routeLength="592.20" waitingTime="1.00" waitingCount="1" stopTime="0.00" timeLoss="18.11" rerouteNo="0" devices="tripinfo_117" vType="DEFAULT_VEHTYPE" speedFactor="1.00" vaporized=""/>
    <tripinfo id="10" depart="8.00" departLane="-64_0" departPos="5.10" departSpeed="0.00" departDelay="3.00" arrival="147.00" arrivalLane="64_0" arrivalPos="130.26" arrivalSpeed="13.43" duration="139.00" routeLength="789.42" waitingTime="54.00" waitingCount="3" stopTime="0.00" timeLoss="81.97" rerouteNo="0" devices="tripinfo_10" vType="DEFAULT_VEHTYPE" speedFactor="1.00" vaporized=""/>
    <tripinfo id="64" depart="42.00" departLane="-11_0" departPos="5.10" departSpeed="0.00" departDelay="0.00" arrival="147.00" arrivalLane="64_1" arrivalPos="130.26" arrivalSpeed="13.58" duration="105.00" routeLength="683.37" waitingTime="26.00" waitingCount="2" stopTime="0.00" timeLoss="54.88" rerouteNo="0" devices="tripinfo_64" vType="DEFAULT_VEHTYPE" speedFactor="1.00" vaporized=""/>
    <tripinfo id="139" depart="107.00" departLane="-220_0" departPos="5.10" departSpeed="0.00" departDelay="0.00" arrival="148.00" arrivalLane="224_0" arrivalPos="211.26" arrivalSpeed="13.76" duration="41.00" routeLength="414.28" waitingTime="1.00" waitingCount="1" stopTime="0.00" timeLoss="10.89" rerouteNo="0" devices="tripinfo_139" vType="DEFAULT_VEHTYPE" speedFactor="1.00" vaporized=""/>
    <tripinfo id="99" depart="68.00" departLane="-222_0" departPos="5.10" departSpeed="0.00" departDelay="0.00" arrival="155.00" arrivalLane="224_1" arrivalPos="211.26" arrivalSpeed="12.74" duration="87.00" routeLength="355.83" waitingTime="52.00" waitingCount="1" stopTime="0.00" timeLoss="61.19" rerouteNo="0" devices="tripinfo_99" vType="DEFAULT_VEHTYPE" speedFactor="1.00" vaporized=""/>
    <tripinfo id="77" depart="51.00" departLane="-64_0" departPos="5.10" departSpeed="0.00" departDelay="1.00" arrival="157.00" arrivalLane="222_0" arrivalPos="126.74" arrivalSpeed="13.88" duration="106.00" routeLength="660.71" waitingTime="27.00" waitingCount="3" stopTime="0.00" timeLoss="57.82" rerouteNo="0" devices="tripinfo_77" vType="DEFAULT_VEHTYPE" speedFactor="1.00" vaporized=""/>
    <tripinfo id="130" depart="98.00" departLane="-222_0" departPos="5.10" departSpeed="0.00" departDelay="0.00" arrival="157.00" arrivalLane="224_1" arrivalPos="211.26" arrivalSpeed="13.58" duration="59.00" routeLength="355.83" waitingTime="23.00" waitingCount="1" stopTime="0.00" timeLoss="32.92" rerouteNo="0" devices="tripinfo_130" vType="DEFAULT_VEHTYPE" speedFactor="1.00" vaporized=""/>
    <tripinfo id="38" depart="26.00" departLane="-64_0" departPos="5.10" departSpeed="0.00" departDelay="2.00" arrival="157.00" arrivalLane="11_0" arrivalPos="157.48" arrivalSpeed="12.92" duration="131.00" routeLength="682.71" waitingTime="57.00" waitingCount="2" stopTime="0.00" timeLoss="81.58" rerouteNo="0" devices="tripinfo_38" vType="DEFAULT_VEHTYPE" speedFactor="1.00" vaporized=""/>
    <tripinfo id="146" depart="114.00" departLane="-222_0" departPos="5.10" departSpeed="0.00" departDelay="0.00" arrival="159.00" arrivalLane="224_1" arrivalPos="211.26" arrivalSpeed="13.37" duration="45.00" routeLength="355.83" waitingTime="10.00" waitingCount="1" stopTime="0.00" timeLoss="18.80" rerouteNo="0" devices="tripinfo_146" vType="DEFAULT_VEHTYPE" speedFactor="1.00" vaporized=""/>
    <tripinfo id="25" depart="14.00" departLane="-64_0" departPos="5.10" departSpeed="0.00" departDelay="0.00" arrival="160.00" arrivalLane="64_0" arrivalPos="130.26" arrivalSpeed="13.44" duration="146.00" routeLength="789.42" waitingTime="55.00" waitingCount="4" stopTime="0.00" timeLoss="88.47" rerouteNo="0" devices="tripinfo_25" vType="DEFAULT_VEHTYPE" speedFactor="1.00" vaporized=""/>
    <tripinfo id="36" depart="23.00" departLane="-64_0" departPos="5.10" departSpeed="0.00" departDelay="0.00" arrival="161.00" arrivalLane="220_1" arrivalPos="203.12" arrivalSpeed="13.24" duration="138.00" routeLength="745.03" waitingTime="53.00" waitingCount="4" stopTime="0.00" timeLoss="83.80" rerouteNo="0" devices="tripinfo_36" vType="DEFAULT_VEHTYPE" speedFactor="1.00" vaporized=""/>
    <tripinfo id="70" depart="48.00" departLane="-64_0" departPos="5.10" departSpeed="0.00" departDelay="0.00" arrival="162.00" arrivalLane="64_0" arrivalPos="130.26" arrivalSpeed="13.08" duration="114.00" routeLength="789.42" waitingTime="19.00" waitingCount="3" stopTime="0.00" timeLoss="56.63" rerouteNo="0" devices="tripinfo_70" vType="DEFAULT_VEHTYPE" speedFactor="1.00" vaporized=""/>
    <tripinfo id="84" depart="56.00" departLane="-64_0" departPos="5.10" departSpeed="0.00" departDelay="0.00" arrival="162.00" arrivalLane="7_1" arrivalPos="196.65" arrivalSpeed="13.53" duration="106.00" routeLength="727.36" waitingTime="30.00" waitingCount="2" stopTime="0.00" timeLoss="53.23" rerouteNo="0" devices="tripinfo_84" vType="DEFAULT_VEHTYPE" speedFactor="1.00" vaporized=""/>
    <tripinfo id="91" depart="64.00" departLane="-64_0" departPos="5.10" departSpeed="0.00" departDelay="0.00" arrival="164.00" arrivalLane="64_0" arrivalPos="130.26" arrivalSpeed="13.36" duration="100.00" routeLength="789.42" waitingTime="10.00" waitingCount="2" stopTime="0.00" timeLoss="42.44" rerouteNo="0" devices="tripinfo_91" vType="DEFAULT_VEHTYPE" speedFactor="1.00" vaporized=""/>
    <tripinfo id="16" depart="8.00" departLane="-7_0" departPos="5.10" departSpeed="0.00" departDelay="0.00" arrival="164.00" arrivalLane="222_0" arrivalPos="126.74" arrivalSpeed="13.19" duration="156.00" routeLength="737.91" waitingTime="69.00" waitingCount="6" stopTime="0.00" timeLoss="102.34" rerouteNo="0" devices="tripinfo_16" vType="DEFAULT_VEHTYPE" speedFactor="1.00" vaporized=""/>
    <tripinfo id="33" depart="20.00" departLane="-7_0" departPos="5.10" departSpeed="0.00" departDelay="0.00" arrival="164.00" arrivalLane="7_1" arrivalPos="196.65" arrivalSpeed="13.24" duration="144.00" routeLength="1167.44" waitingTime="30.00" waitingCount="4" stopTime="0.00" timeLoss="59.96" rerouteNo="0" devices="tripinfo_33" vType="DEFAULT_VEHTYPE" speedFactor="1.00" vaporized=""/>
    <tripinfo id="42" depart="28.00" departLane="-332_0" departPos="5.10" departSpeed="0.00" departDelay="1.00" arrival="166.00" arrivalLane="222_0" arrivalPos="126.74" arrivalSpeed="13.54" duration="138.00" routeLength="885.36" waitingTime="45.00" waitingCount="4" stopTime="0.00" timeLoss="73.47" rerouteNo="0" devices="tripinfo_42" vType="DEFAULT_VEHTYPE" speedFactor="1.00" vaporized=""/>
    <tripinfo id="9" depart="5.00" departLane="-332_0" departPos="5.10" departSpeed="0.00" departDelay="0.00" arrival="167.00" arrivalLane="11_0" arrivalPos="157.48" arrivalSpeed="12.69" duration="162.00" routeLength="865.36" waitingTime="67.00" waitingCount="3" stopTime="0.00" timeLoss="99.27" rerouteNo="0" devices="tripinfo_9" vType="DEFAULT_VEHTYPE" speedFactor="1.00" vaporized=""/>
    <tripinfo id="5" depart="3.00" departLane="-7_0" departPos="5.10" departSpeed="0.00" departDelay="0.00" arrival="168.00" arrivalLane="224_2" arrivalPos="211.26" arrivalSpeed="13.77" duration="165.00" routeLength="830.11" waitingTime="76.00" waitingCount="5" stopTime="0.00" timeLoss="104.37" rerouteNo="0" devices="tripinfo_5" vType="DEFAULT_VEHTYPE" speedFactor="1.00" vaporized=""/>
    <tripinfo id="26" depart="16.00" departLane="-332_0" departPos="5.10" departSpeed="0.00" departDelay="0.00" arrival="169.00" arrivalLane="224_2" arrivalPos="211.26" arrivalSpeed="13.30" duration="153.00" routeLength="977.56" waitingTime="60.00" waitingCount="3" stopTime="0.00" timeLoss="82.51" rerouteNo="0" devices="tripinfo_26" vType="DEFAULT_VEHTYPE" speedFactor="1.00" vaporized=""/>
    <tripinfo id="111" depart="79.00" departLane="-25_0" departPos="5.10" departSpeed="0.00" departDelay="0.00" arrival="170.00" arrivalLane="7_0" arrivalPos="196.65" arrivalSpeed="12.76" duration="91.00" routeLength="600.43" waitingTime="37.00" waitingCount="1" stopTime="0.00" timeLoss="47.32" rerouteNo="0" devices="tripinfo_111" vType="DEFAULT_VEHTYPE" speedFactor="1.00" vaporized=""/>
    <tripinfo id="65" depart="42.00" departLane="-7_0" departPos="5.10" departSpeed="0.00" departDelay="0.00" arrival="172.00" arrivalLane="7_1" arrivalPos="196.65" arrivalSpeed="13.04" duration="130.00" routeLength="1167.44" waitingTime="11.00" waitingCount="3" stopTime="0.00" timeLoss="45.20" rerouteNo="0" devices="tripinfo_65" vType="DEFAULT_VEHTYPE" speedFactor="1.00" vaporized=""/>
    <tripinfo id="113" depart="82.00" departLane="-332_0" departPos="5.10" departSpeed="0.00" departDelay="0.00" arrival="172.00" arrivalLane="11_0" arrivalPos="157.48" arrivalSpeed="12.85" duration="90.00" routeLength="865.36" waitingTime="1.00" waitingCount="1" stopTime="0.00" timeLoss="27.33" rerouteNo="0" devices="tripinfo_113" vType="DEFAULT_VEHTYPE" speedFactor="1.00" vaporized=""/>
    <tripinfo id="55" depart="36.00" departLane="-11_0" departPos="5.10" departSpeed="0.00" departDelay="2.00" arrival="176.00" arrivalLane="220_1" arrivalPos="203.12" arrivalSpeed="13.26" duration="140.00" routeLength="785.28" waitingTime="39.00" waitingCount="5" stopTime="0.00" timeLoss="83.42" rerouteNo="0" devices="tripinfo_55" vType="DEFAULT_VEHTYPE" speedFactor="1.00" vaporized=""/>
    <tripinfo id="53" depart="33.00" departLane="-11_0" departPos="5.10" departSpeed="0.00" departDelay="0.00" arrival="176.00" arrivalLane="224_2" arrivalPos="211.26" arrivalSpeed="13.62" duration="143.00" routeLength="793.16" waitingTime="44.00" waitingCount="6" stopTime="0.00" timeLoss="85.83" rerouteNo="0" devices="tripinfo_53" vType="DEFAULT_VEHTYPE" speedFactor="1.00" vaporized=""/>
    <tripinfo id="6" depart="7.00" departLane="-222_0" departPos="5.10" departSpeed="0.00" departDelay="3.00" arrival="179.00" arrivalLane="25_0" arrivalPos="204.27" arrivalSpeed="13.89" duration="172.00" routeLength="527.18" waitingTime="109.00" waitingCount="3" stopTime="0.00" timeLoss="133.79" rerouteNo="0" devices="tripinfo_6" vType="DEFAULT_VEHTYPE" speedFactor="1.00" vaporized=""/>
    <tripinfo id="90" depart="63.00" departLane="-332_0" departPos="5.10" departSpeed="0.00" departDelay="0.00" arrival="179.00" arrivalLane="224_2" arrivalPos="211.26" arrivalSpeed="13.18" duration="116.00" routeLength="977.56" waitingTime="10.00" waitingCount="3" stopTime="0.00" timeLoss="45.65" rerouteNo="0" devices="tripinfo_90" vType="DEFAULT_VEHTYPE" speedFactor="1.00" vaporized=""/>
    <tripinfo id="61" depart="41.00" departLane="-25_0" departPos="5.10" departSpeed="0.00" departDelay="2.00" arrival="183.00" arrivalLane="220_1" arrivalPos="203.12" arrivalSpeed="12.75" duration="142.00" routeLength="615.47" waitingTime="76.00" waitingCount="1" stopTime="0.00" timeLoss="96.85" rerouteNo="0" devices="tripinfo_61" vType="DEFAULT_VEHTYPE" speedFactor="1.00" vaporized=""/>
    <tripinfo id="62" depart="43.00" departLane="-25_0" departPos="5.10" departSpeed="0.00" departDelay="3.00" arrival="185.00" arrivalLane="224_2" arrivalPos="211.26" arrivalSpeed="13.71" duration="142.00" routeLength="623.35" waitingTime="74.00" waitingCount="1" stopTime="0.00" timeLoss="96.37" rerouteNo="0" devices="tripinfo_62" vType="DEFAULT_VEHTYPE" speedFactor="1.00" vaporized=""/>
    <tripinfo id="123" depart="89.00" departLane="-25_0" departPos="5.10" departSpeed="0.00" departDelay="0.00" arrival="191.00" arrivalLane="224_2" arrivalPos="211.26" arrivalSpeed="13.43" duration="102.00" routeLength="623.35" waitingTime="29.00" waitingCount="1" stopTime="0.00" timeLoss="56.51" rerouteNo="0" devices="tripinfo_123" vType="DEFAULT_VEHTYPE" speedFactor="1.00" vaporized=""/>
    <tripinfo id="128" depart="97.00" departLane="-25_0" departPos="5.10" departSpeed="0.00" departDelay="2.00" arrival="193.00" arrivalLane="224_2" arrivalPos="211.26" arrivalSpeed="13.85" duration="96.00" routeLength="623.35" waitingTime="24.00" waitingCount="1" stopTime="0.00" timeLoss="50.83" rerouteNo="0" devices="tripinfo_128" vType="DEFAULT_VEHTYPE" speedFactor="1.00" vaporized=""/>
    <tripinfo id="142" depart="112.00" departLane="-224_0" departPos="5.10" departSpeed="0.00" departDelay="0.00" arrival="194.00" arrivalLane="222_1" arrivalPos="126.74" arrivalSpeed="12.95" duration="82.00" routeLength="357.62" waitingTime="44.00" waitingCount="1" stopTime="0.00" timeLoss="55.64" rerouteNo="0" devices="tripinfo_142" vType="DEFAULT_VEHTYPE" speedFactor="1.00" vaporized=""/>
    <tripinfo id="169" depart="133.00" departLane="-64_0" departPos="5.10" departSpeed="0.00" departDelay="0.00" arrival="196.00" arrivalLane="332_2" arrivalPos="153.41" arrivalSpeed="13.22" duration="63.00" routeLength="494.09" waitingTime="11.00" waitingCount="2" stopTime="0.00" timeLoss="27.11" rerouteNo="0" devices="tripinfo_169" vType="DEFAULT_VEHTYPE" speedFactor="1.00" vaporized=""/>
    <tripinfo id="47" depart="30.00" departLane="-7_0" departPos="5.10" departSpeed="0.00" departDelay="2.00" arrival="196.00" arrivalLane="332_0" arrivalPos="153.41" arrivalSpeed="13.52" duration="166.00" routeLength="891.47" waitingTime="83.00" waitingCount="2" stopTime="0.00" timeLoss="101.83" rerouteNo="0" devices="tripinfo_47" vType="DEFAULT_VEHTYPE" speedFactor="1.00" vaporized=""/>
    <tripinfo id="50" depart="30.00" departLane="-11_0" departPos="5.10" departSpeed="0.00" departDelay="0.00" arrival="196.00" arrivalLane="332_1" arrivalPos="153.41" arrivalSpeed="13.29" duration="166.00" routeLength="843.39" waitingTime="77.00" waitingCount="4" stopTime="0.00" timeLoss="105.05" rerouteNo="0" devices="tripinfo_50" vType="DEFAULT_VEHTYPE" speedFactor="1.00" vaporized=""/>
    <tripinfo id="143" depart="115.00" departLane="-224_0" departPos="5.10" departSpeed="0.00" departDelay="3.00" arrival="196.00" arrivalLane="222_1" arrivalPos="126.74" arrivalSpeed="13.85" duration="81.00" routeLength="357.62" waitingTime="42.00" waitingCount="1" stopTime="0.00" timeLoss="54.33" rerouteNo="0" devices="tripinfo_143" vType="DEFAULT_VEHTYPE" speedFactor="1.00" vaporized=""/>
    <tripinfo id="1" depart="1.00" departLane="-222_0" departPos="5.10" departSpeed="0.00" departDelay="0.00" arrival="196.00" arrivalLane="11_0" arrivalPos="157.48" arrivalSpeed="13.50" duration="195.00" routeLength="708.86" waitingTime="114.00" waitingCount="5" stopTime="0.00" timeLoss="143.37" rerouteNo="0" devices="tripinfo_1" vType="DEFAULT_VEHTYPE" speedFactor="1.00" vaporized=""/>
    <tripinfo id="35" depart="22.00" departLane="-220_0" departPos="5.10" departSpeed="0.00" departDelay="0.00" arrival="197.00" arrivalLane="7_0" arrivalPos="196.65" arrivalSpeed="13.17" duration="175.00" routeLength="807.97" waitingTime="87.00" waitingCount="4" stopTime="0.00" timeLoss="116.81" rerouteNo="0" devices="tripinfo_35" vType="DEFAULT_VEHTYPE" speedFactor="1.00" vaporized=""/>
    <tripinfo id="174" depart="144.00" departLane="-64_0" departPos="5.10" departSpeed="0.00" departDelay="2.00" arrival="198.00" arrivalLane="332_2" arrivalPos="153.41" arrivalSpeed="13.86" duration="54.00" routeLength="494.09" waitingTime="2.00" waitingCount="1" stopTime="0.00" timeLoss="18.21" rerouteNo="0" devices="tripinfo_174" vType="DEFAULT_VEHTYPE" speedFactor="1.00" vaporized=""/>
    <tripinfo id="8" depart="10.00" departLane="-222_0" departPos="5.10" departSpeed="0.00" departDelay="5.00" arrival="199.00" arrivalLane="7_0" arrivalPos="196.65" arrivalSpeed="13.86" duration="189.00" routeLength="729.86" waitingTime="102.00" waitingCount="3" stopTime="0.00" timeLoss="136.29" rerouteNo="0" devices="tripinfo_8" vType="DEFAULT_VEHTYPE" speedFactor="1.00" vaporized=""/>