<?xml version="1.0" encoding="UTF-8"?>

<!-- generated on 06/21/18 21:54:30 by Eclipse SUMO GUI Version v0_32_0+1428-4ab3f27cbd
<configuration xmlns:xsi="http://www.w3.org/2001/XMLSchema-instance" xsi:noNamespaceSchemaLocation="http://sumo.dlr.de/xsd/sumoConfiguration.xsd">

    <input>
        <net-file value="./neighborhood/neighborhood.net.xml"/>
        <route-files value="./neighborhood/routes.rou.alt.xml"/>
        <additional-files value="./neighborhood/e2.add.xml"/>
    </input>

    <output>
        <tripinfo-output value="./neighborhood/neighborhood_tripinfo-output_StaticScheduler.xml"/>
    </output>

    <traci_server>
        <remote-port value="51795"/>
    </traci_server>

</configuration>
-->

<tripinfos xmlns:xsi="http://www.w3.org/2001/XMLSchema-instance" xsi:noNamespaceSchemaLocation="http://sumo.dlr.de/xsd/tripinfo_file.xsd">
    <tripinfo id="1" depart="0.00" departLane="-11_0" departPos="5.10" departSpeed="0.00" departDelay="0.00" arrival="32.00" arrivalLane="7_0" arrivalPos="192.38" arrivalSpeed="13.37" duration="32.00" routeLength="372.43" waitingTime="0.00" waitingCount="0" stopTime="0.00" timeLoss="4.74" rerouteNo="0" devices="tripinfo_1" vType="DEFAULT_VEHTYPE" speedFactor="1.00" vaporized=""/>
    <tripinfo id="5" depart="4.00" departLane="-19_0" departPos="5.10" departSpeed="0.00" departDelay="3.00" arrival="36.00" arrivalLane="25_0" arrivalPos="195.06" arrivalSpeed="13.01" duration="32.00" routeLength="375.90" waitingTime="0.00" waitingCount="0" stopTime="0.00" timeLoss="4.19" rerouteNo="0" devices="tripinfo_5" vType="DEFAULT_VEHTYPE" speedFactor="1.00" vaporized=""/>
    <tripinfo id="10" depart="4.00" departLane="-7_0" departPos="5.10" departSpeed="0.00" departDelay="0.00" arrival="41.00" arrivalLane="11_0" arrivalPos="159.85" arrivalSpeed="13.77" duration="37.00" routeLength="352.93" waitingTime="1.00" waitingCount="1" stopTime="0.00" timeLoss="10.91" rerouteNo="0" devices="tripinfo_10" vType="DEFAULT_VEHTYPE" speedFactor="1.00" vaporized=""/>
    <tripinfo id="2" depart="0.00" departLane="-19_0" departPos="5.10" departSpeed="0.00" departDelay="0.00" arrival="51.00" arrivalLane="68_1" arrivalPos="184.71" arrivalSpeed="13.06" duration="51.00" routeLength="607.79" waitingTime="0.00" waitingCount="0" stopTime="0.00" timeLoss="6.47" rerouteNo="0" devices="tripinfo_2" vType="DEFAULT_VEHTYPE" speedFactor="1.00" vaporized=""/>
    <tripinfo id="22" depart="15.00" departLane="-11_0" departPos="5.10" departSpeed="0.00" departDelay="0.00" arrival="51.00" arrivalLane="7_0" arrivalPos="192.38" arrivalSpeed="13.01" duration="36.00" routeLength="372.43" waitingTime="0.00" waitingCount="0" stopTime="0.00" timeLoss="9.19" rerouteNo="0" devices="tripinfo_22" vType="DEFAULT_VEHTYPE" speedFactor="1.00" vaporized=""/>
    <tripinfo id="7" depart="2.00" departLane="-63_0" departPos="5.10" departSpeed="0.00" departDelay="0.00" arrival="53.00" arrivalLane="25_2" arrivalPos="195.06" arrivalSpeed="13.16" duration="51.00" routeLength="363.44" waitingTime="16.00" waitingCount="1" stopTime="0.00" timeLoss="24.78" rerouteNo="0" devices="tripinfo_7" vType="DEFAULT_VEHTYPE" speedFactor="1.00" vaporized=""/>
    <tripinfo id="26" depart="19.00" departLane="-11_0" departPos="5.10" departSpeed="0.00" departDelay="2.00" arrival="54.00" arrivalLane="7_0" arrivalPos="192.38" arrivalSpeed="13.22" duration="35.00" routeLength="372.43" waitingTime="0.00" waitingCount="0" stopTime="0.00" timeLoss="7.86" rerouteNo="0" devices="tripinfo_26" vType="DEFAULT_VEHTYPE" speedFactor="1.00" vaporized=""/>
    <tripinfo id="38" depart="28.00" departLane="-63_0" departPos="5.10" departSpeed="0.00" departDelay="0.00" arrival="60.00" arrivalLane="19_2" arrivalPos="180.70" arrivalSpeed="13.49" duration="32.00" routeLength="354.09" waitingTime="0.00" waitingCount="0" stopTime="0.00" timeLoss="5.75" rerouteNo="0" devices="tripinfo_38" vType="DEFAULT_VEHTYPE" speedFactor="1.00" vaporized=""/>
    <tripinfo id="25" depart="23.00" departLane="-7_0" departPos="5.10" departSpeed="0.00" departDelay="7.00" arrival="70.00" arrivalLane="11_0" arrivalPos="159.85" arrivalSpeed="13.50" duration="47.00" routeLength="352.93" waitingTime="9.00" waitingCount="1" stopTime="0.00" timeLoss="20.90" rerouteNo="0" devices="tripinfo_25" vType="DEFAULT_VEHTYPE" speedFactor="1.00" vaporized=""/>
    <tripinfo id="32" depart="29.00" departLane="-7_0" departPos="5.10" departSpeed="0.00" departDelay="10.00" arrival="73.00" arrivalLane="11_0" arrivalPos="159.85" arrivalSpeed="13.35" duration="44.00" routeLength="352.93" waitingTime="6.00" waitingCount="1" stopTime="0.00" timeLoss="18.36" rerouteNo="0" devices="tripinfo_32" vType="DEFAULT_VEHTYPE" speedFactor="1.00" vaporized=""/>
    <tripinfo id="13" depart="9.00" departLane="-25_0" departPos="5.10" departSpeed="0.00" departDelay="3.00" arrival="82.00" arrivalLane="63_0" arrivalPos="135.17" arrivalSpeed="12.77" duration="73.00" routeLength="347.68" waitingTime="39.00" waitingCount="1" stopTime="0.00" timeLoss="47.64" rerouteNo="0" devices="tripinfo_13" vType="DEFAULT_VEHTYPE" speedFactor="1.00" vaporized=""/>
    <tripinfo id="14" depart="12.00" departLane="-25_0" departPos="5.10" departSpeed="0.00" departDelay="1.00" arrival="84.00" arrivalLane="63_0" arrivalPos="135.17" arrivalSpeed="12.70" duration="72.00" routeLength="347.68" waitingTime="36.00" waitingCount="1" stopTime="0.00" timeLoss="46.83" rerouteNo="0" devices="tripinfo_14" vType="DEFAULT_VEHTYPE" speedFactor="1.00" vaporized=""/>
    <tripinfo id="29" depart="28.00" departLane="-25_0" departPos="5.10" departSpeed="0.00" departDelay="10.00" arrival="84.00" arrivalLane="19_4" arrivalPos="180.70" arrivalSpeed="13.68" duration="56.00" routeLength="399.66" waitingTime="17.00" waitingCount="1" stopTime="0.00" timeLoss="26.72" rerouteNo="0" devices="tripinfo_29" vType="DEFAULT_VEHTYPE" speedFactor="1.00" vaporized=""/>
    <tripinfo id="56" depart="47.00" departLane="-7_0" departPos="5.10" departSpeed="0.00" departDelay="8.00" arrival="86.00" arrivalLane="11_0" arrivalPos="159.85" arrivalSpeed="13.42" duration="39.00" routeLength="352.93" waitingTime="0.00" waitingCount="0" stopTime="0.00" timeLoss="13.11" rerouteNo="0" devices="tripinfo_56" vType="DEFAULT_VEHTYPE" speedFactor="1.00" vaporized=""/>
    <tripinfo id="18" depart="15.00" departLane="-25_0" departPos="5.10" departSpeed="0.00" departDelay="3.00" arrival="86.00" arrivalLane="63_0" arrivalPos="135.17" arrivalSpeed="13.74" duration="71.00" routeLength="347.68" waitingTime="34.00" waitingCount="1" stopTime="0.00" timeLoss="45.59" rerouteNo="0" devices="tripinfo_18" vType="DEFAULT_VEHTYPE" speedFactor="1.00" vaporized=""/>
    <tripinfo id="30" depart="31.00" departLane="-25_0" departPos="5.10" departSpeed="0.00" departDelay="13.00" arrival="86.00" arrivalLane="19_4" arrivalPos="180.70" arrivalSpeed="13.84" duration="55.00" routeLength="399.66" waitingTime="17.00" waitingCount="1" stopTime="0.00" timeLoss="26.06" rerouteNo="0" devices="tripinfo_30" vType="DEFAULT_VEHTYPE" speedFactor="1.00" vaporized=""/>
    <tripinfo id="20" depart="18.00" departLane="-25_0" departPos="5.10" departSpeed="0.00" departDelay="6.00" arrival="88.00" arrivalLane="63_0" arrivalPos="135.17" arrivalSpeed="13.75" duration="70.00" routeLength="347.68" waitingTime="32.00" waitingCount="1" stopTime="0.00" timeLoss="44.37" rerouteNo="0" devices="tripinfo_20" vType="DEFAULT_VEHTYPE" speedFactor="1.00" vaporized=""/>
    <tripinfo id="17" depart="14.00" departLane="-7_0" departPos="5.10" departSpeed="0.00" departDelay="3.00" arrival="97.00" arrivalLane="68_0" arrivalPos="184.71" arrivalSpeed="13.00" duration="83.00" routeLength="774.44" waitingTime="12.00" waitingCount="1" stopTime="0.00" timeLoss="26.48" rerouteNo="0" devices="tripinfo_17" vType="DEFAULT_VEHTYPE" speedFactor="1.00" vaporized=""/>
    <tripinfo id="33" depart="23.00" departLane="-68_0" departPos="5.10" departSpeed="0.00" departDelay="0.00" arrival="98.00" arrivalLane="11_3" arrivalPos="159.85" arrivalSpeed="12.62" duration="75.00" routeLength="703.16" waitingTime="7.00" waitingCount="2" stopTime="0.00" timeLoss="22.83" rerouteNo="0" devices="tripinfo_33" vType="DEFAULT_VEHTYPE" speedFactor="1.00" vaporized=""/>
    <tripinfo id="8" depart="2.00" departLane="-68_0" departPos="5.10" departSpeed="0.00" departDelay="0.00" arrival="98.00" arrivalLane="7_0" arrivalPos="192.38" arrivalSpeed="13.84" duration="96.00" routeLength="744.93" waitingTime="28.00" waitingCount="1" stopTime="0.00" timeLoss="41.11" rerouteNo="0" devices="tripinfo_8" vType="DEFAULT_VEHTYPE" speedFactor="1.00" vaporized=""/>
    <tripinfo id="86" depart="67.00" departLane="-25_0" departPos="5.10" departSpeed="0.00" departDelay="2.00" arrival="101.00" arrivalLane="19_4" arrivalPos="180.70" arrivalSpeed="13.14" duration="34.00" routeLength="399.66" waitingTime="0.00" waitingCount="0" stopTime="0.00" timeLoss="4.68" rerouteNo="0" devices="tripinfo_86" vType="DEFAULT_VEHTYPE" speedFactor="1.00" vaporized=""/>
    <tripinfo id="53" depart="38.00" departLane="-63_0" departPos="5.10" departSpeed="0.00" departDelay="0.00" arrival="105.00" arrivalLane="11_1" arrivalPos="159.85" arrivalSpeed="13.27" duration="67.00" routeLength="492.37" waitingTime="22.00" waitingCount="1" stopTime="0.00" timeLoss="31.58" rerouteNo="0" devices="tripinfo_53" vType="DEFAULT_VEHTYPE" speedFactor="1.00" vaporized=""/>
    <tripinfo id="6" depart="7.00" departLane="-19_0" departPos="5.10" departSpeed="0.00" departDelay="5.00" arrival="106.00" arrivalLane="63_0" arrivalPos="135.17" arrivalSpeed="12.81" duration="99.00" routeLength="348.55" waitingTime="63.00" waitingCount="1" stopTime="0.00" timeLoss="73.18" rerouteNo="0" devices="tripinfo_6" vType="DEFAULT_VEHTYPE" speedFactor="1.00" vaporized=""/>
    <tripinfo id="67" depart="50.00" departLane="-63_0" departPos="5.10" departSpeed="0.00" departDelay="0.00" arrival="106.00" arrivalLane="11_2" arrivalPos="159.85" arrivalSpeed="13.10" duration="56.00" routeLength="492.37" waitingTime="1.00" waitingCount="1" stopTime="0.00" timeLoss="19.77" rerouteNo="0" devices="tripinfo_67" vType="DEFAULT_VEHTYPE" speedFactor="1.00" vaporized=""/>
    <tripinfo id="3" depart="1.00" departLane="-19_0" departPos="5.10" departSpeed="0.00" departDelay="1.00" arrival="106.00" arrivalLane="11_0" arrivalPos="159.85" arrivalSpeed="13.78" duration="105.00" routeLength="571.24" waitingTime="52.00" waitingCount="1" stopTime="0.00" timeLoss="63.00" rerouteNo="0" devices="tripinfo_3" vType="DEFAULT_VEHTYPE" speedFactor="1.00" vaporized=""/>
    <tripinfo id="23" depart="20.00" departLane="-7_0" departPos="5.10" departSpeed="0.00" departDelay="5.00" arrival="108.00" arrivalLane="19_2" arrivalPos="180.70" arrivalSpeed="12.90" duration="88.00" routeLength="610.07" waitingTime="22.00" waitingCount="2" stopTime="0.00" timeLoss="43.92" rerouteNo="0" devices="tripinfo_23" vType="DEFAULT_VEHTYPE" speedFactor="1.00" vaporized=""/>
    <tripinfo id="4" depart="1.00" departLane="-11_0" departPos="5.10" departSpeed="0.00" departDelay="0.00" arrival="108.00" arrivalLane="19_0" arrivalPos="180.70" arrivalSpeed="13.78" duration="107.00" routeLength="569.92" waitingTime="56.00" waitingCount="1" stopTime="0.00" timeLoss="65.74" rerouteNo="0" devices="tripinfo_4" vType="DEFAULT_VEHTYPE" speedFactor="1.00" vaporized=""/>
    <tripinfo id="45" depart="36.00" departLane="-25_0" departPos="5.10" departSpeed="0.00" departDelay="3.00" arrival="108.00" arrivalLane="11_1" arrivalPos="159.85" arrivalSpeed="13.11" duration="72.00" routeLength="576.12" waitingTime="19.00" waitingCount="1" stopTime="0.00" timeLoss="30.38" rerouteNo="0" devices="tripinfo_45" vType="DEFAULT_VEHTYPE" speedFactor="1.00" vaporized=""/>
    <tripinfo id="34" depart="32.00" departLane="-7_0" departPos="5.10" departSpeed="0.00" departDelay="6.00" arrival="108.00" arrivalLane="68_0" arrivalPos="184.71" arrivalSpeed="13.46" duration="76.00" routeLength="774.44" waitingTime="5.00" waitingCount="1" stopTime="0.00" timeLoss="20.23" rerouteNo="0" devices="tripinfo_34" vType="DEFAULT_VEHTYPE" speedFactor="1.00" vaporized=""/>
    <tripinfo id="16" depart="11.00" departLane="-11_0" departPos="5.10" departSpeed="0.00" departDelay="0.00" arrival="109.00" arrivalLane="19_1" arrivalPos="180.70" arrivalSpeed="13.19" duration="98.00" routeLength="569.92" waitingTime="45.00" waitingCount="1" stopTime="0.00" timeLoss="56.22" rerouteNo="0" devices="tripinfo_16" vType="DEFAULT_VEHTYPE" speedFactor="1.00" vaporized=""/>
    <tripinfo id="24" depart="16.00" departLane="-11_0" departPos="5.10" departSpeed="0.00" departDelay="0.00" arrival="110.00" arrivalLane="19_0" arrivalPos="180.70" arrivalSpeed="13.88" duration="94.00" routeLength="569.92" waitingTime="42.00" waitingCount="1" stopTime="0.00" timeLoss="52.74" rerouteNo="0" devices="tripinfo_24" vType="DEFAULT_VEHTYPE" speedFactor="1.00" vaporized=""/>
    <tripinfo id="36" depart="27.00" departLane="-19_0" departPos="5.10" departSpeed="0.00" departDelay="0.00" arrival="110.00" arrivalLane="25_0" arrivalPos="195.06" arrivalSpeed="13.83" duration="83.00" routeLength="375.90" waitingTime="45.00" waitingCount="1" stopTime="0.00" timeLoss="55.07" rerouteNo="0" devices="tripinfo_36" vType="DEFAULT_VEHTYPE" speedFactor="1.00" vaporized=""/>
    <tripinfo id="58" depart="41.00" departLane="-63_0" departPos="5.10" departSpeed="0.00" departDelay="1.00" arrival="110.00" arrivalLane="7_0" arrivalPos="192.38" arrivalSpeed="13.50" duration="69.00" routeLength="517.97" waitingTime="21.00" waitingCount="1" stopTime="0.00" timeLoss="30.78" rerouteNo="0" devices="tripinfo_58" vType="DEFAULT_VEHTYPE" speedFactor="1.00" vaporized=""/>
    <tripinfo id="37" depart="30.00" departLane="-19_0" departPos="5.10" departSpeed="0.00" departDelay="3.00" arrival="111.00" arrivalLane="25_0" arrivalPos="195.06" arrivalSpeed="13.77" duration="81.00" routeLength="375.90" waitingTime="43.00" waitingCount="1" stopTime="0.00" timeLoss="53.84" rerouteNo="0" devices="tripinfo_37" vType="DEFAULT_VEHTYPE" speedFactor="1.00" vaporized=""/>
    <tripinfo id="81" depart="62.00" departLane="-7_0" departPos="5.10" departSpeed="0.00" departDelay="0.00" arrival="111.00" arrivalLane="11_0" arrivalPos="159.85" arrivalSpeed="13.87" duration="49.00" routeLength="352.93" waitingTime="12.00" waitingCount="2" stopTime="0.00" timeLoss="23.21" rerouteNo="0" devices="tripinfo_81" vType="DEFAULT_VEHTYPE" speedFactor="1.00" vaporized=""/>
    <tripinfo id="68" depart="53.00" departLane="-63_0" departPos="5.10" departSpeed="0.00" departDelay="3.00" arrival="111.00" arrivalLane="7_0" arrivalPos="192.38" arrivalSpeed="13.50" duration="58.00" routeLength="517.97" waitingTime="2.00" waitingCount="2" stopTime="0.00" timeLoss="20.62" rerouteNo="0" devices="tripinfo_68" vType="DEFAULT_VEHTYPE" speedFactor="1.00" vaporized=""/>
    <tripinfo id="51" depart="37.00" departLane="-19_0" departPos="5.10" departSpeed="0.00" departDelay="0.00" arrival="113.00" arrivalLane="25_0" arrivalPos="195.06" arrivalSpeed="13.44" duration="76.00" routeLength="375.90" waitingTime="40.00" waitingCount="1" stopTime="0.00" timeLoss="48.65" rerouteNo="0" devices="tripinfo_51" vType="DEFAULT_VEHTYPE" speedFactor="1.00" vaporized=""/>
    <tripinfo id="57" depart="39.00" departLane="-25_0" departPos="5.10" departSpeed="0.00" departDelay="0.00" arrival="113.00" arrivalLane="7_0" arrivalPos="192.38" arrivalSpeed="13.33" duration="74.00" routeLength="601.72" waitingTime="17.00" waitingCount="1" stopTime="0.00" timeLoss="30.42" rerouteNo="0" devices="tripinfo_57" vType="DEFAULT_VEHTYPE" speedFactor="1.00" vaporized=""/>
    <tripinfo id="35" depart="26.00" departLane="-68_0" departPos="5.10" departSpeed="0.00" departDelay="0.00" arrival="114.00" arrivalLane="19_0" arrivalPos="180.70" arrivalSpeed="13.85" duration="88.00" routeLength="580.85" waitingTime="28.00" waitingCount="3" stopTime="0.00" timeLoss="45.58" rerouteNo="0" devices="tripinfo_35" vType="DEFAULT_VEHTYPE" speedFactor="1.00" vaporized=""/>
    <tripinfo id="74" depart="56.00" departLane="-25_0" departPos="5.10" departSpeed="0.00" departDelay="0.00" arrival="114.00" arrivalLane="11_1" arrivalPos="159.85" arrivalSpeed="13.80" duration="58.00" routeLength="576.12" waitingTime="4.00" waitingCount="1" stopTime="0.00" timeLoss="16.37" rerouteNo="0" devices="tripinfo_74" vType="DEFAULT_VEHTYPE" speedFactor="1.00" vaporized=""/>
    <tripinfo id="92" depart="72.00" departLane="-19_0" departPos="5.10" departSpeed="0.00" departDelay="1.00" arrival="115.00" arrivalLane="25_0" arrivalPos="195.06" arrivalSpeed="13.29" duration="43.00" routeLength="375.90" waitingTime="5.00" waitingCount="1" stopTime="0.00" timeLoss="15.49" rerouteNo="0" devices="tripinfo_92" vType="DEFAULT_VEHTYPE" speedFactor="1.00" vaporized=""/>
    <tripinfo id="63" depart="42.00" departLane="-25_0" departPos="5.10" departSpeed="0.00" departDelay="0.00" arrival="115.00" arrivalLane="7_0" arrivalPos="192.38" arrivalSpeed="13.05" duration="73.00" routeLength="601.72" waitingTime="16.00" waitingCount="1" stopTime="0.00" timeLoss="29.49" rerouteNo="0" devices="tripinfo_63" vType="DEFAULT_VEHTYPE" speedFactor="1.00" vaporized=""/>
    <tripinfo id="12" depart="6.00" departLane="-25_0" departPos="5.10" departSpeed="0.00" departDelay="0.00" arrival="116.00" arrivalLane="68_1" arrivalPos="184.71" arrivalSpeed="13.50" duration="110.00" routeLength="630.42" waitingTime="48.00" waitingCount="3" stopTime="0.00" timeLoss="64.15" rerouteNo="0" devices="tripinfo_12" vType="DEFAULT_VEHTYPE" speedFactor="1.00" vaporized=""/>
    <tripinfo id="82" depart="65.00" departLane="-7_0" departPos="5.10" departSpeed="0.00" departDelay="2.00" arrival="117.00" arrivalLane="11_0" arrivalPos="159.85" arrivalSpeed="13.45" duration="52.00" routeLength="352.93" waitingTime="10.00" waitingCount="3" stopTime="0.00" timeLoss="26.17" rerouteNo="0" devices="tripinfo_82" vType="DEFAULT_VEHTYPE" speedFactor="1.00" vaporized=""/>
    <tripinfo id="79" depart="60.00" departLane="-25_0" departPos="5.10" departSpeed="0.00" departDelay="0.00" arrival="118.00" arrivalLane="7_0" arrivalPos="192.38" arrivalSpeed="13.74" duration="58.00" routeLength="601.72" waitingTime="2.00" waitingCount="1" stopTime="0.00" timeLoss="13.88" rerouteNo="0" devices="tripinfo_79" vType="DEFAULT_VEHTYPE" speedFactor="1.00" vaporized=""/>
    <tripinfo id="70" depart="56.00" departLane="-63_0" departPos="5.10" departSpeed="0.00" departDelay="4.00" arrival="119.00" arrivalLane="11_0" arrivalPos="159.85" arrivalSpeed="13.21" duration="63.00" routeLength="492.37" waitingTime="10.00" waitingCount="2" stopTime="0.00" timeLoss="26.99" rerouteNo="0" devices="tripinfo_70" vType="DEFAULT_VEHTYPE" speedFactor="1.00" vaporized=""/>
    <tripinfo id="21" depart="22.00" departLane="-25_0" departPos="5.10" departSpeed="0.00" departDelay="8.00" arrival="121.00" arrivalLane="68_1" arrivalPos="184.71" arrivalSpeed="13.30" duration="99.00" routeLength="630.42" waitingTime="29.00" waitingCount="3" stopTime="0.00" timeLoss="52.80" rerouteNo="0" devices="tripinfo_21" vType="DEFAULT_VEHTYPE" speedFactor="1.00" vaporized=""/>
    <tripinfo id="64" depart="44.00" departLane="-19_0" departPos="5.10" departSpeed="0.00" departDelay="0.00" arrival="122.00" arrivalLane="11_1" arrivalPos="159.85" arrivalSpeed="12.88" duration="78.00" routeLength="571.24" waitingTime="25.00" waitingCount="1" stopTime="0.00" timeLoss="36.89" rerouteNo="0" devices="tripinfo_64" vType="DEFAULT_VEHTYPE" speedFactor="1.00" vaporized=""/>
    <tripinfo id="62" depart="53.00" departLane="-7_0" departPos="5.10" departSpeed="0.00" departDelay="11.00" arrival="123.00" arrivalLane="68_0" arrivalPos="184.71" arrivalSpeed="13.32" duration="70.00" routeLength="774.44" waitingTime="0.00" waitingCount="0" stopTime="0.00" timeLoss="14.05" rerouteNo="0" devices="tripinfo_62" vType="DEFAULT_VEHTYPE" speedFactor="1.00" vaporized=""/>
    <tripinfo id="27" depart="25.00" departLane="-25_0" departPos="5.10" departSpeed="0.00" departDelay="8.00" arrival="123.00" arrivalLane="68_1" arrivalPos="184.71" arrivalSpeed="13.81" duration="98.00" routeLength="630.42" waitingTime="24.00" waitingCount="2" stopTime="0.00" timeLoss="51.76" rerouteNo="0" devices="tripinfo_27" vType="DEFAULT_VEHTYPE" speedFactor="1.00" vaporized=""/>
    <tripinfo id="95" depart="75.00" departLane="-19_0" departPos="5.10" departSpeed="0.00" departDelay="1.00" arrival="124.00" arrivalLane="11_3" arrivalPos="159.85" arrivalSpeed="12.61" duration="49.00" routeLength="571.24" waitingTime="0.00" waitingCount="0" stopTime="0.00" timeLoss="7.30" rerouteNo="0" devices="tripinfo_95" vType="DEFAULT_VEHTYPE" speedFactor="1.00" vaporized=""/>
    <tripinfo id="47" depart="35.00" departLane="-11_0" departPos="5.10" departSpeed="0.00" departDelay="1.00" arrival="124.00" arrivalLane="19_0" arrivalPos="180.70" arrivalSpeed="13.72" duration="89.00" routeLength="569.92" waitingTime="37.00" waitingCount="1" stopTime="0.00" timeLoss="47.32" rerouteNo="0" devices="tripinfo_47" vType="DEFAULT_VEHTYPE" speedFactor="1.00" vaporized=""/>
    <tripinfo id="85" depart="68.00" departLane="-7_0" departPos="5.10" departSpeed="0.00" departDelay="4.00" arrival="128.00" arrivalLane="11_0" arrivalPos="159.85" arrivalSpeed="13.72" duration="60.00" routeLength="352.93" waitingTime="13.00" waitingCount="4" stopTime="0.00" timeLoss="33.88" rerouteNo="0" devices="tripinfo_85" vType="DEFAULT_VEHTYPE" speedFactor="1.00" vaporized=""/>
    <tripinfo id="89" depart="69.00" departLane="-19_0" departPos="5.10" departSpeed="0.00" departDelay="0.00" arrival="128.00" arrivalLane="7_0" arrivalPos="192.38" arrivalSpeed="13.17" duration="59.00" routeLength="596.84" waitingTime="3.00" waitingCount="1" stopTime="0.00" timeLoss="15.51" rerouteNo="0" devices="tripinfo_89" vType="DEFAULT_VEHTYPE" speedFactor="1.00" vaporized=""/>
    <tripinfo id="73" depart="62.00" departLane="-63_0" departPos="5.10" departSpeed="0.00" departDelay="6.00" arrival="130.00" arrivalLane="7_0" arrivalPos="192.38" arrivalSpeed="13.15" duration="68.00" routeLength="517.97" waitingTime="12.00" waitingCount="3" stopTime="0.00" timeLoss="29.96" rerouteNo="0" devices="tripinfo_73" vType="DEFAULT_VEHTYPE" speedFactor="1.00" vaporized=""/>
    <tripinfo id="43" depart="33.00" departLane="-19_0" departPos="5.10" departSpeed="0.00" departDelay="2.00" arrival="132.00" arrivalLane="68_1" arrivalPos="184.71" arrivalSpeed="13.30" duration="99.00" routeLength="607.79" waitingTime="38.00" waitingCount="2" stopTime="0.00" timeLoss="55.03" rerouteNo="0" devices="tripinfo_43" vType="DEFAULT_VEHTYPE" speedFactor="1.00" vaporized=""/>
    <tripinfo id="46" depart="34.00" departLane="-11_0" departPos="5.10" departSpeed="0.00" departDelay="0.00" arrival="134.00" arrivalLane="7_0" arrivalPos="192.38" arrivalSpeed="13.46" duration="100.00" routeLength="372.43" waitingTime="60.00" waitingCount="2" stopTime="0.00" timeLoss="72.68" rerouteNo="0" devices="tripinfo_46" vType="DEFAULT_VEHTYPE" speedFactor="1.00" vaporized=""/>
    <tripinfo id="75" depart="57.00" departLane="-11_0" departPos="5.10" departSpeed="0.00" departDelay="0.00" arrival="136.00" arrivalLane="68_0" arrivalPos="184.71" arrivalSpeed="13.09" duration="79.00" routeLength="711.58" waitingTime="17.00" waitingCount="1" stopTime="0.00" timeLoss="27.55" rerouteNo="0" devices="tripinfo_75" vType="DEFAULT_VEHTYPE" speedFactor="1.00" vaporized=""/>
    <tripinfo id="101" depart="78.00" departLane="-19_0" departPos="5.10" departSpeed="0.00" departDelay="0.00" arrival="136.00" arrivalLane="68_1" arrivalPos="184.71" arrivalSpeed="13.40" duration="58.00" routeLength="607.79" waitingTime="0.00" waitingCount="0" stopTime="0.00" timeLoss="14.11" rerouteNo="0" devices="tripinfo_101" vType="DEFAULT_VEHTYPE" speedFactor="1.00" vaporized=""/>
    <tripinfo id="55" depart="41.00" departLane="-11_0" departPos="5.10" departSpeed="0.00" departDelay="2.00" arrival="136.00" arrivalLane="7_0" arrivalPos="192.38" arrivalSpeed="13.50" duration="95.00" routeLength="372.43" waitingTime="54.00" waitingCount="2" stopTime="0.00" timeLoss="68.01" rerouteNo="0" devices="tripinfo_55" vType="DEFAULT_VEHTYPE" speedFactor="1.00" vaporized=""/>
    <tripinfo id="15" depart="11.00" departLane="-7_0" departPos="5.10" departSpeed="0.00" departDelay="0.00" arrival="137.00" arrivalLane="25_1" arrivalPos="195.06" arrivalSpeed="13.07" duration="126.00" routeLength="635.43" waitingTime="57.00" waitingCount="3" stopTime="0.00" timeLoss="79.63" rerouteNo="0" devices="tripinfo_15" vType="DEFAULT_VEHTYPE" speedFactor="1.00" vaporized=""/>
    <tripinfo id="96" depart="74.00" departLane="-68_0" departPos="5.10" departSpeed="0.00" departDelay="0.00" arrival="137.00" arrivalLane="19_0" arrivalPos="180.70" arrivalSpeed="13.07" duration="63.00" routeLength="580.85" waitingTime="4.00" waitingCount="2" stopTime="0.00" timeLoss="20.42" rerouteNo="0" devices="tripinfo_96" vType="DEFAULT_VEHTYPE" speedFactor="1.00" vaporized=""/>
    <tripinfo id="48" depart="35.00" departLane="-7_0" departPos="5.10" departSpeed="0.00" departDelay="1.00" arrival="139.00" arrivalLane="25_1" arrivalPos="195.06" arrivalSpeed="13.23" duration="104.00" routeLength="635.43" waitingTime="30.00" waitingCount="3" stopTime="0.00" timeLoss="57.45" rerouteNo="0" devices="tripinfo_48" vType="DEFAULT_VEHTYPE" speedFactor="1.00" vaporized=""/>
    <tripinfo id="69" depart="51.00" departLane="-11_0" departPos="5.10" departSpeed="0.00" departDelay="0.00" arrival="141.00" arrivalLane="7_0" arrivalPos="192.38" arrivalSpeed="13.25" duration="90.00" routeLength="372.43" waitingTime="46.00" waitingCount="2" stopTime="0.00" timeLoss="62.51" rerouteNo="0" devices="tripinfo_69" vType="DEFAULT_VEHTYPE" speedFactor="1.00" vaporized=""/>
    <tripinfo id="52" depart="41.00" departLane="-7_0" departPos="5.10" departSpeed="0.00" departDelay="4.00" arrival="142.00" arrivalLane="25_1" arrivalPos="195.06" arrivalSpeed="13.21" duration="101.00" routeLength="635.43" waitingTime="24.00" waitingCount="3" stopTime="0.00" timeLoss="54.38" rerouteNo="0" devices="tripinfo_52" vType="DEFAULT_VEHTYPE" speedFactor="1.00" vaporized=""/>
    <tripinfo id="106" depart="81.00" departLane="-11_0" departPos="5.10" departSpeed="0.00" departDelay="0.00" arrival="144.00" arrivalLane="7_0" arrivalPos="192.38" arrivalSpeed="12.91" duration="63.00" routeLength="372.43" waitingTime="19.00" waitingCount="1" stopTime="0.00" timeLoss="35.99" rerouteNo="0" devices="tripinfo_106" vType="DEFAULT_VEHTYPE" speedFactor="1.00" vaporized=""/>
    <tripinfo id="80" depart="71.00" departLane="-63_0" departPos="5.10" departSpeed="0.00" departDelay="9.00" arrival="145.00" arrivalLane="19_2" arrivalPos="180.70" arrivalSpeed="13.23" duration="74.00" routeLength="354.09" waitingTime="22.00" waitingCount="4" stopTime="0.00" timeLoss="48.29" rerouteNo="0" devices="tripinfo_80" vType="DEFAULT_VEHTYPE" speedFactor="1.00" vaporized=""/>
    <tripinfo id="72" depart="59.00" departLane="-63_0" departPos="5.10" departSpeed="0.00" departDelay="4.00" arrival="145.00" arrivalLane="19_3" arrivalPos="180.70" arrivalSpeed="12.85" duration="86.00" routeLength="354.09" waitingTime="47.00" waitingCount="2" stopTime="0.00" timeLoss="59.93" rerouteNo="0" devices="tripinfo_72" vType="DEFAULT_VEHTYPE" speedFactor="1.00" vaporized=""/>
    <tripinfo id="141" depart="104.00" departLane="-11_0" departPos="5.10" departSpeed="0.00" departDelay="0.00" arrival="146.00" arrivalLane="7_0" arrivalPos="192.38" arrivalSpeed="13.34" duration="42.00" routeLength="372.43" waitingTime="0.00" waitingCount="0" stopTime="0.00" timeLoss="14.78" rerouteNo="0" devices="tripinfo_141" vType="DEFAULT_VEHTYPE" speedFactor="1.00" vaporized=""/>
    <tripinfo id="105" depart="80.00" departLane="-19_0" departPos="5.10" departSpeed="0.00" departDelay="0.00" arrival="147.00" arrivalLane="68_1" arrivalPos="184.71" arrivalSpeed="13.69" duration="67.00" routeLength="607.79" waitingTime="5.00" waitingCount="1" stopTime="0.00" timeLoss="23.04" rerouteNo="0" devices="tripinfo_105" vType="DEFAULT_VEHTYPE" speedFactor="1.00" vaporized=""/>
    <tripinfo id="118" depart="88.00" departLane="-11_0" departPos="5.10" departSpeed="0.00" departDelay="0.00" arrival="152.00" arrivalLane="68_0" arrivalPos="184.71" arrivalSpeed="12.93" duration="64.00" routeLength="711.58" waitingTime="1.00" waitingCount="1" stopTime="0.00" timeLoss="12.22" rerouteNo="0" devices="tripinfo_118" vType="DEFAULT_VEHTYPE" speedFactor="1.00" vaporized=""/>
    <tripinfo id="114" depart="87.00" departLane="-68_0" departPos="5.10" departSpeed="0.00" departDelay="0.00" arrival="152.00" arrivalLane="25_1" arrivalPos="195.06" arrivalSpeed="13.72" duration="65.00" routeLength="619.24" waitingTime="1.00" waitingCount="1" stopTime="0.00" timeLoss="20.17" rerouteNo="0" devices="tripinfo_114" vType="DEFAULT_VEHTYPE" speedFactor="1.00" vaporized=""/>
    <tripinfo id="78" depart="68.00" departLane="-63_0" departPos="5.10" departSpeed="0.00" departDelay="9.00" arrival="154.00" arrivalLane="19_2" arrivalPos="180.70" arrivalSpeed="13.40" duration="86.00" routeLength="354.09" waitingTime="45.00" waitingCount="3" stopTime="0.00" timeLoss="60.27" rerouteNo="0" devices="tripinfo_78" vType="DEFAULT_VEHTYPE" speedFactor="1.00" vaporized=""/>
    <tripinfo id="40" depart="30.00" departLane="-68_0" departPos="5.10" departSpeed="0.00" departDelay="0.00" arrival="155.00" arrivalLane="7_0" arrivalPos="192.38" arrivalSpeed="13.14" duration="125.00" routeLength="744.93" waitingTime="52.00" waitingCount="2" stopTime="0.00" timeLoss="70.18" rerouteNo="0" devices="tripinfo_40" vType="DEFAULT_VEHTYPE" speedFactor="1.00" vaporized=""/>