<?xml version="1.0" encoding="UTF-8"?>

<!-- generated on 06/21/18 21:54:49 by Eclipse SUMO GUI Version v0_32_0+1428-4ab3f27cbd
<configuration xmlns:xsi="http://www.w3.org/2001/XMLSchema-instance" xsi:noNamespaceSchemaLocation="http://sumo.dlr.de/xsd/sumoConfiguration.xsd">

    <input>
        <net-file value="./neighborhood/neighborhood.net.xml"/>
        <route-files value="./neighborhood/routes.rou.alt.xml"/>
        <additional-files value="./neighborhood/e2.add.xml"/>
    </input>

    <output>
        <tripinfo-output value="./neighborhood/neighborhood_tripinfo-output_MaxOccupancyScheduler.xml"/>
    </output>

    <traci_server>
        <remote-port value="51797"/>
    </traci_server>

</configuration>
-->

<tripinfos xmlns:xsi="http://www.w3.org/2001/XMLSchema-instance" xsi:noNamespaceSchemaLocation="http://sumo.dlr.de/xsd/tripinfo_file.xsd">
    <tripinfo id="1" depart="0.00" departLane="-11_0" departPos="5.10" departSpeed="0.00" departDelay="0.00" arrival="32.00" arrivalLane="7_0" arrivalPos="192.38" arrivalSpeed="12.68" duration="32.00" routeLength="372.43" waitingTime="0.00" waitingCount="0" stopTime="0.00" timeLoss="4.84" rerouteNo="0" devices="tripinfo_1" vType="DEFAULT_VEHTYPE" speedFactor="1.00" vaporized=""/>
    <tripinfo id="10" depart="4.00" departLane="-7_0" departPos="5.10" departSpeed="0.00" departDelay="0.00" arrival="34.00" arrivalLane="11_0" arrivalPos="159.85" arrivalSpeed="13.80" duration="30.00" routeLength="352.93" waitingTime="0.00" waitingCount="0" stopTime="0.00" timeLoss="3.95" rerouteNo="0" devices="tripinfo_10" vType="DEFAULT_VEHTYPE" speedFactor="1.00" vaporized=""/>
    <tripinfo id="7" depart="2.00" departLane="-63_0" departPos="5.10" departSpeed="0.00" departDelay="0.00" arrival="34.00" arrivalLane="25_2" arrivalPos="195.06" arrivalSpeed="12.64" duration="32.00" routeLength="363.44" waitingTime="0.00" waitingCount="0" stopTime="0.00" timeLoss="5.60" rerouteNo="0" devices="tripinfo_7" vType="DEFAULT_VEHTYPE" speedFactor="1.00" vaporized=""/>
    <tripinfo id="5" depart="4.00" departLane="-19_0" departPos="5.10" departSpeed="0.00" departDelay="3.00" arrival="36.00" arrivalLane="25_0" arrivalPos="195.06" arrivalSpeed="12.89" duration="32.00" routeLength="375.90" waitingTime="0.00" waitingCount="0" stopTime="0.00" timeLoss="4.22" rerouteNo="0" devices="tripinfo_5" vType="DEFAULT_VEHTYPE" speedFactor="1.00" vaporized=""/>
    <tripinfo id="6" depart="7.00" departLane="-19_0" departPos="5.10" departSpeed="0.00" departDelay="5.00" arrival="41.00" arrivalLane="63_0" arrivalPos="135.17" arrivalSpeed="12.86" duration="34.00" routeLength="348.55" waitingTime="0.00" waitingCount="0" stopTime="0.00" timeLoss="8.31" rerouteNo="0" devices="tripinfo_6" vType="DEFAULT_VEHTYPE" speedFactor="1.00" vaporized=""/>
    <tripinfo id="13" depart="9.00" departLane="-25_0" departPos="5.10" departSpeed="0.00" departDelay="3.00" arrival="44.00" arrivalLane="63_0" arrivalPos="135.17" arrivalSpeed="13.66" duration="35.00" routeLength="347.68" waitingTime="0.00" waitingCount="0" stopTime="0.00" timeLoss="9.44" rerouteNo="0" devices="tripinfo_13" vType="DEFAULT_VEHTYPE" speedFactor="1.00" vaporized=""/>
    <tripinfo id="14" depart="12.00" departLane="-25_0" departPos="5.10" departSpeed="0.00" departDelay="1.00" arrival="46.00" arrivalLane="63_0" arrivalPos="135.17" arrivalSpeed="12.93" duration="34.00" routeLength="347.68" waitingTime="0.00" waitingCount="0" stopTime="0.00" timeLoss="8.34" rerouteNo="0" devices="tripinfo_14" vType="DEFAULT_VEHTYPE" speedFactor="1.00" vaporized=""/>
    <tripinfo id="18" depart="15.00" departLane="-25_0" departPos="5.10" departSpeed="0.00" departDelay="3.00" arrival="48.00" arrivalLane="63_0" arrivalPos="135.17" arrivalSpeed="13.53" duration="33.00" routeLength="347.68" waitingTime="0.00" waitingCount="0" stopTime="0.00" timeLoss="7.11" rerouteNo="0" devices="tripinfo_18" vType="DEFAULT_VEHTYPE" speedFactor="1.00" vaporized=""/>
    <tripinfo id="20" depart="18.00" departLane="-25_0" departPos="5.10" departSpeed="0.00" departDelay="6.00" arrival="54.00" arrivalLane="63_0" arrivalPos="135.17" arrivalSpeed="13.80" duration="36.00" routeLength="347.68" waitingTime="1.00" waitingCount="1" stopTime="0.00" timeLoss="10.76" rerouteNo="0" devices="tripinfo_20" vType="DEFAULT_VEHTYPE" speedFactor="1.00" vaporized=""/>
    <tripinfo id="22" depart="15.00" departLane="-11_0" departPos="5.10" departSpeed="0.00" departDelay="0.00" arrival="62.00" arrivalLane="7_0" arrivalPos="192.38" arrivalSpeed="12.84" duration="47.00" routeLength="372.43" waitingTime="11.00" waitingCount="1" stopTime="0.00" timeLoss="19.38" rerouteNo="0" devices="tripinfo_22" vType="DEFAULT_VEHTYPE" speedFactor="1.00" vaporized=""/>
    <tripinfo id="38" depart="28.00" departLane="-63_0" departPos="5.10" departSpeed="0.00" departDelay="0.00" arrival="63.00" arrivalLane="19_2" arrivalPos="180.70" arrivalSpeed="13.32" duration="35.00" routeLength="354.09" waitingTime="0.00" waitingCount="0" stopTime="0.00" timeLoss="8.85" rerouteNo="0" devices="tripinfo_38" vType="DEFAULT_VEHTYPE" speedFactor="1.00" vaporized=""/>
    <tripinfo id="25" depart="23.00" departLane="-7_0" departPos="5.10" departSpeed="0.00" departDelay="7.00" arrival="68.00" arrivalLane="11_0" arrivalPos="159.85" arrivalSpeed="13.10" duration="45.00" routeLength="352.93" waitingTime="8.00" waitingCount="1" stopTime="0.00" timeLoss="19.43" rerouteNo="0" devices="tripinfo_25" vType="DEFAULT_VEHTYPE" speedFactor="1.00" vaporized=""/>
    <tripinfo id="8" depart="2.00" departLane="-68_0" departPos="5.10" departSpeed="0.00" departDelay="0.00" arrival="69.00" arrivalLane="7_0" arrivalPos="192.38" arrivalSpeed="12.98" duration="67.00" routeLength="744.93" waitingTime="1.00" waitingCount="1" stopTime="0.00" timeLoss="12.41" rerouteNo="0" devices="tripinfo_8" vType="DEFAULT_VEHTYPE" speedFactor="1.00" vaporized=""/>
    <tripinfo id="2" depart="0.00" departLane="-19_0" departPos="5.10" departSpeed="0.00" departDelay="0.00" arrival="70.00" arrivalLane="68_1" arrivalPos="184.71" arrivalSpeed="13.59" duration="70.00" routeLength="607.79" waitingTime="9.00" waitingCount="2" stopTime="0.00" timeLoss="26.08" rerouteNo="0" devices="tripinfo_2" vType="DEFAULT_VEHTYPE" speedFactor="1.00" vaporized=""/>
    <tripinfo id="32" depart="29.00" departLane="-7_0" departPos="5.10" departSpeed="0.00" departDelay="10.00" arrival="72.00" arrivalLane="11_0" arrivalPos="159.85" arrivalSpeed="13.42" duration="43.00" routeLength="352.93" waitingTime="5.00" waitingCount="1" stopTime="0.00" timeLoss="17.23" rerouteNo="0" devices="tripinfo_32" vType="DEFAULT_VEHTYPE" speedFactor="1.00" vaporized=""/>
    <tripinfo id="29" depart="28.00" departLane="-25_0" departPos="5.10" departSpeed="0.00" departDelay="10.00" arrival="75.00" arrivalLane="19_4" arrivalPos="180.70" arrivalSpeed="12.72" duration="47.00" routeLength="399.66" waitingTime="8.00" waitingCount="1" stopTime="0.00" timeLoss="17.82" rerouteNo="0" devices="tripinfo_29" vType="DEFAULT_VEHTYPE" speedFactor="1.00" vaporized=""/>
    <tripinfo id="36" depart="27.00" departLane="-19_0" departPos="5.10" departSpeed="0.00" departDelay="0.00" arrival="75.00" arrivalLane="25_0" arrivalPos="195.06" arrivalSpeed="13.87" duration="48.00" routeLength="375.90" waitingTime="11.00" waitingCount="1" stopTime="0.00" timeLoss="20.20" rerouteNo="0" devices="tripinfo_36" vType="DEFAULT_VEHTYPE" speedFactor="1.00" vaporized=""/>
    <tripinfo id="3" depart="1.00" departLane="-19_0" departPos="5.10" departSpeed="0.00" departDelay="1.00" arrival="80.00" arrivalLane="11_0" arrivalPos="159.85" arrivalSpeed="12.69" duration="79.00" routeLength="571.24" waitingTime="24.00" waitingCount="2" stopTime="0.00" timeLoss="37.84" rerouteNo="0" devices="tripinfo_3" vType="DEFAULT_VEHTYPE" speedFactor="1.00" vaporized=""/>
    <tripinfo id="35" depart="26.00" departLane="-68_0" departPos="5.10" departSpeed="0.00" departDelay="0.00" arrival="81.00" arrivalLane="19_0" arrivalPos="180.70" arrivalSpeed="13.63" duration="55.00" routeLength="580.85" waitingTime="1.00" waitingCount="1" stopTime="0.00" timeLoss="13.03" rerouteNo="0" devices="tripinfo_35" vType="DEFAULT_VEHTYPE" speedFactor="1.00" vaporized=""/>
    <tripinfo id="26" depart="19.00" departLane="-11_0" departPos="5.10" departSpeed="0.00" departDelay="2.00" arrival="86.00" arrivalLane="7_0" arrivalPos="192.38" arrivalSpeed="13.75" duration="67.00" routeLength="372.43" waitingTime="23.00" waitingCount="2" stopTime="0.00" timeLoss="39.71" rerouteNo="0" devices="tripinfo_26" vType="DEFAULT_VEHTYPE" speedFactor="1.00" vaporized=""/>
    <tripinfo id="33" depart="23.00" departLane="-68_0" departPos="5.10" departSpeed="0.00" departDelay="0.00" arrival="88.00" arrivalLane="11_3" arrivalPos="159.85" arrivalSpeed="13.18" duration="65.00" routeLength="703.16" waitingTime="1.00" waitingCount="1" stopTime="0.00" timeLoss="12.90" rerouteNo="0" devices="tripinfo_33" vType="DEFAULT_VEHTYPE" speedFactor="1.00" vaporized=""/>
    <tripinfo id="12" depart="6.00" departLane="-25_0" departPos="5.10" departSpeed="0.00" departDelay="0.00" arrival="88.00" arrivalLane="68_1" arrivalPos="184.71" arrivalSpeed="13.74" duration="82.00" routeLength="630.42" waitingTime="17.00" waitingCount="2" stopTime="0.00" timeLoss="36.02" rerouteNo="0" devices="tripinfo_12" vType="DEFAULT_VEHTYPE" speedFactor="1.00" vaporized=""/>
    <tripinfo id="37" depart="30.00" departLane="-19_0" departPos="5.10" departSpeed="0.00" departDelay="3.00" arrival="89.00" arrivalLane="25_0" arrivalPos="195.06" arrivalSpeed="13.79" duration="59.00" routeLength="375.90" waitingTime="19.00" waitingCount="2" stopTime="0.00" timeLoss="31.89" rerouteNo="0" devices="tripinfo_37" vType="DEFAULT_VEHTYPE" speedFactor="1.00" vaporized=""/>
    <tripinfo id="30" depart="30.00" departLane="-25_0" departPos="5.10" departSpeed="0.00" departDelay="12.00" arrival="91.00" arrivalLane="19_4" arrivalPos="180.70" arrivalSpeed="13.26" duration="61.00" routeLength="399.66" waitingTime="16.00" waitingCount="2" stopTime="0.00" timeLoss="32.01" rerouteNo="0" devices="tripinfo_30" vType="DEFAULT_VEHTYPE" speedFactor="1.00" vaporized=""/>
    <tripinfo id="53" depart="38.00" departLane="-63_0" departPos="5.10" departSpeed="0.00" departDelay="0.00" arrival="91.00" arrivalLane="11_0" arrivalPos="159.85" arrivalSpeed="13.33" duration="53.00" routeLength="492.37" waitingTime="1.00" waitingCount="1" stopTime="0.00" timeLoss="17.56" rerouteNo="0" devices="tripinfo_53" vType="DEFAULT_VEHTYPE" speedFactor="1.00" vaporized=""/>
    <tripinfo id="72" depart="59.00" departLane="-63_0" departPos="5.10" departSpeed="0.00" departDelay="4.00" arrival="95.00" arrivalLane="19_3" arrivalPos="180.70" arrivalSpeed="13.52" duration="36.00" routeLength="354.09" waitingTime="0.00" waitingCount="0" stopTime="0.00" timeLoss="10.36" rerouteNo="0" devices="tripinfo_72" vType="DEFAULT_VEHTYPE" speedFactor="1.00" vaporized=""/>
    <tripinfo id="17" depart="14.00" departLane="-7_0" departPos="5.10" departSpeed="0.00" departDelay="3.00" arrival="95.00" arrivalLane="68_0" arrivalPos="184.71" arrivalSpeed="13.32" duration="81.00" routeLength="774.44" waitingTime="12.00" waitingCount="1" stopTime="0.00" timeLoss="24.93" rerouteNo="0" devices="tripinfo_17" vType="DEFAULT_VEHTYPE" speedFactor="1.00" vaporized=""/>
    <tripinfo id="21" depart="22.00" departLane="-25_0" departPos="5.10" departSpeed="0.00" departDelay="8.00" arrival="97.00" arrivalLane="68_1" arrivalPos="184.71" arrivalSpeed="12.66" duration="75.00" routeLength="630.42" waitingTime="11.00" waitingCount="2" stopTime="0.00" timeLoss="28.79" rerouteNo="0" devices="tripinfo_21" vType="DEFAULT_VEHTYPE" speedFactor="1.00" vaporized=""/>
    <tripinfo id="46" depart="34.00" departLane="-11_0" departPos="5.10" departSpeed="0.00" departDelay="0.00" arrival="97.00" arrivalLane="7_0" arrivalPos="192.38" arrivalSpeed="13.70" duration="63.00" routeLength="372.43" waitingTime="20.00" waitingCount="2" stopTime="0.00" timeLoss="35.43" rerouteNo="0" devices="tripinfo_46" vType="DEFAULT_VEHTYPE" speedFactor="1.00" vaporized=""/>
    <tripinfo id="27" depart="25.00" departLane="-25_0" departPos="5.10" departSpeed="0.00" departDelay="8.00" arrival="99.00" arrivalLane="68_1" arrivalPos="184.71" arrivalSpeed="13.81" duration="74.00" routeLength="630.42" waitingTime="10.00" waitingCount="1" stopTime="0.00" timeLoss="27.77" rerouteNo="0" devices="tripinfo_27" vType="DEFAULT_VEHTYPE" speedFactor="1.00" vaporized=""/>
    <tripinfo id="51" depart="37.00" departLane="-19_0" departPos="5.10" departSpeed="0.00" departDelay="0.00" arrival="100.00" arrivalLane="25_0" arrivalPos="195.06" arrivalSpeed="13.12" duration="63.00" routeLength="375.90" waitingTime="17.00" waitingCount="3" stopTime="0.00" timeLoss="35.52" rerouteNo="0" devices="tripinfo_51" vType="DEFAULT_VEHTYPE" speedFactor="1.00" vaporized=""/>
    <tripinfo id="40" depart="30.00" departLane="-68_0" departPos="5.10" departSpeed="0.00" departDelay="0.00" arrival="102.00" arrivalLane="7_0" arrivalPos="192.38" arrivalSpeed="13.36" duration="72.00" routeLength="744.93" waitingTime="5.00" waitingCount="1" stopTime="0.00" timeLoss="17.54" rerouteNo="0" devices="tripinfo_40" vType="DEFAULT_VEHTYPE" speedFactor="1.00" vaporized=""/>
    <tripinfo id="56" depart="47.00" departLane="-7_0" departPos="5.10" departSpeed="0.00" departDelay="8.00" arrival="103.00" arrivalLane="11_0" arrivalPos="159.85" arrivalSpeed="13.89" duration="56.00" routeLength="352.93" waitingTime="4.00" waitingCount="1" stopTime="0.00" timeLoss="29.64" rerouteNo="0" devices="tripinfo_56" vType="DEFAULT_VEHTYPE" speedFactor="1.00" vaporized=""/>
    <tripinfo id="78" depart="68.00" departLane="-63_0" departPos="5.10" departSpeed="0.00" departDelay="9.00" arrival="106.00" arrivalLane="19_3" arrivalPos="180.70" arrivalSpeed="13.18" duration="38.00" routeLength="354.09" waitingTime="2.00" waitingCount="1" stopTime="0.00" timeLoss="12.41" rerouteNo="0" devices="tripinfo_78" vType="DEFAULT_VEHTYPE" speedFactor="1.00" vaporized=""/>
    <tripinfo id="34" depart="32.00" departLane="-7_0" departPos="5.10" departSpeed="0.00" departDelay="6.00" arrival="106.00" arrivalLane="68_0" arrivalPos="184.71" arrivalSpeed="13.81" duration="74.00" routeLength="774.44" waitingTime="3.00" waitingCount="1" stopTime="0.00" timeLoss="17.31" rerouteNo="0" devices="tripinfo_34" vType="DEFAULT_VEHTYPE" speedFactor="1.00" vaporized=""/>
    <tripinfo id="65" depart="45.00" departLane="-68_0" departPos="5.10" departSpeed="0.00" departDelay="0.00" arrival="107.00" arrivalLane="63_1" arrivalPos="135.17" arrivalSpeed="13.27" duration="62.00" routeLength="561.02" waitingTime="1.00" waitingCount="1" stopTime="0.00" timeLoss="21.55" rerouteNo="0" devices="tripinfo_65" vType="DEFAULT_VEHTYPE" speedFactor="1.00" vaporized=""/>
    <tripinfo id="81" depart="62.00" departLane="-7_0" departPos="5.10" departSpeed="0.00" departDelay="0.00" arrival="109.00" arrivalLane="11_0" arrivalPos="159.85" arrivalSpeed="12.93" duration="47.00" routeLength="352.93" waitingTime="2.00" waitingCount="1" stopTime="0.00" timeLoss="20.96" rerouteNo="0" devices="tripinfo_81" vType="DEFAULT_VEHTYPE" speedFactor="1.00" vaporized=""/>
    <tripinfo id="82" depart="65.00" departLane="-7_0" departPos="5.10" departSpeed="0.00" departDelay="2.00" arrival="110.00" arrivalLane="11_0" arrivalPos="159.85" arrivalSpeed="13.73" duration="45.00" routeLength="352.93" waitingTime="1.00" waitingCount="1" stopTime="0.00" timeLoss="19.58" rerouteNo="0" devices="tripinfo_82" vType="DEFAULT_VEHTYPE" speedFactor="1.00" vaporized=""/>
    <tripinfo id="60" depart="42.00" departLane="-68_0" departPos="5.10" departSpeed="0.00" departDelay="0.00" arrival="110.00" arrivalLane="7_0" arrivalPos="192.38" arrivalSpeed="12.97" duration="68.00" routeLength="744.93" waitingTime="0.00" waitingCount="0" stopTime="0.00" timeLoss="13.28" rerouteNo="0" devices="tripinfo_60" vType="DEFAULT_VEHTYPE" speedFactor="1.00" vaporized=""/>
    <tripinfo id="0" depart="0.00" departLane="-25_0" departPos="5.10" departSpeed="0.00" departDelay="0.00" arrival="114.00" arrivalLane="25_1" arrivalPos="195.06" arrivalSpeed="13.02" duration="114.00" routeLength="1236.74" waitingTime="3.00" waitingCount="1" stopTime="0.00" timeLoss="24.67" rerouteNo="0" devices="tripinfo_0" vType="DEFAULT_VEHTYPE" speedFactor="1.00" vaporized=""/>
    <tripinfo id="80" depart="71.00" departLane="-63_0" departPos="5.10" departSpeed="0.00" departDelay="9.00" arrival="115.00" arrivalLane="19_2" arrivalPos="180.70" arrivalSpeed="13.30" duration="44.00" routeLength="354.09" waitingTime="3.00" waitingCount="2" stopTime="0.00" timeLoss="18.09" rerouteNo="0" devices="tripinfo_80" vType="DEFAULT_VEHTYPE" speedFactor="1.00" vaporized=""/>
    <tripinfo id="58" depart="41.00" departLane="-63_0" departPos="5.10" departSpeed="0.00" departDelay="1.00" arrival="115.00" arrivalLane="7_0" arrivalPos="192.38" arrivalSpeed="12.95" duration="74.00" routeLength="517.97" waitingTime="11.00" waitingCount="4" stopTime="0.00" timeLoss="36.24" rerouteNo="0" devices="tripinfo_58" vType="DEFAULT_VEHTYPE" speedFactor="1.00" vaporized=""/>
    <tripinfo id="92" depart="72.00" departLane="-19_0" departPos="5.10" departSpeed="0.00" departDelay="1.00" arrival="118.00" arrivalLane="25_0" arrivalPos="195.06" arrivalSpeed="13.31" duration="46.00" routeLength="375.90" waitingTime="9.00" waitingCount="1" stopTime="0.00" timeLoss="18.65" rerouteNo="0" devices="tripinfo_92" vType="DEFAULT_VEHTYPE" speedFactor="1.00" vaporized=""/>
    <tripinfo id="23" depart="20.00" departLane="-7_0" departPos="5.10" departSpeed="0.00" departDelay="5.00" arrival="120.00" arrivalLane="19_2" arrivalPos="180.70" arrivalSpeed="12.72" duration="100.00" routeLength="610.07" waitingTime="35.00" waitingCount="2" stopTime="0.00" timeLoss="55.41" rerouteNo="0" devices="tripinfo_23" vType="DEFAULT_VEHTYPE" speedFactor="1.00" vaporized=""/>
    <tripinfo id="24" depart="16.00" departLane="-11_0" departPos="5.10" departSpeed="0.00" departDelay="0.00" arrival="120.00" arrivalLane="19_1" arrivalPos="180.70" arrivalSpeed="13.69" duration="104.00" routeLength="569.92" waitingTime="45.00" waitingCount="2" stopTime="0.00" timeLoss="62.08" rerouteNo="0" devices="tripinfo_24" vType="DEFAULT_VEHTYPE" speedFactor="1.00" vaporized=""/>
    <tripinfo id="4" depart="1.00" departLane="-11_0" departPos="5.10" departSpeed="0.00" departDelay="0.00" arrival="120.00" arrivalLane="19_0" arrivalPos="180.70" arrivalSpeed="12.67" duration="119.00" routeLength="569.92" waitingTime="67.00" waitingCount="1" stopTime="0.00" timeLoss="77.13" rerouteNo="0" devices="tripinfo_4" vType="DEFAULT_VEHTYPE" speedFactor="1.00" vaporized=""/>
    <tripinfo id="70" depart="56.00" departLane="-63_0" departPos="5.10" departSpeed="0.00" departDelay="4.00" arrival="124.00" arrivalLane="11_2" arrivalPos="159.85" arrivalSpeed="13.43" duration="68.00" routeLength="492.37" waitingTime="7.00" waitingCount="3" stopTime="0.00" timeLoss="32.37" rerouteNo="0" devices="tripinfo_70" vType="DEFAULT_VEHTYPE" speedFactor="1.00" vaporized=""/>
    <tripinfo id="45" depart="35.00" departLane="-25_0" departPos="5.10" departSpeed="0.00" departDelay="2.00" arrival="126.00" arrivalLane="11_1" arrivalPos="159.85" arrivalSpeed="12.85" duration="91.00" routeLength="576.12" waitingTime="27.00" waitingCount="3" stopTime="0.00" timeLoss="49.01" rerouteNo="0" devices="tripinfo_45" vType="DEFAULT_VEHTYPE" speedFactor="1.00" vaporized=""/>
    <tripinfo id="67" depart="50.00" departLane="-63_0" departPos="5.10" departSpeed="0.00" departDelay="0.00" arrival="126.00" arrivalLane="11_0" arrivalPos="159.85" arrivalSpeed="13.75" duration="76.00" routeLength="492.37" waitingTime="15.00" waitingCount="4" stopTime="0.00" timeLoss="39.61" rerouteNo="0" devices="tripinfo_67" vType="DEFAULT_VEHTYPE" speedFactor="1.00" vaporized=""/>
    <tripinfo id="15" depart="11.00" departLane="-7_0" departPos="5.10" departSpeed="0.00" departDelay="0.00" arrival="128.00" arrivalLane="25_1" arrivalPos="195.06" arrivalSpeed="12.69" duration="117.00" routeLength="635.43" waitingTime="51.00" waitingCount="1" stopTime="0.00" timeLoss="70.70" rerouteNo="0" devices="tripinfo_15" vType="DEFAULT_VEHTYPE" speedFactor="1.00" vaporized=""/>
    <tripinfo id="85" depart="68.00" departLane="-7_0" departPos="5.10" departSpeed="0.00" departDelay="4.00" arrival="129.00" arrivalLane="11_0" arrivalPos="159.85" arrivalSpeed="13.23" duration="61.00" routeLength="352.93" waitingTime="10.00" waitingCount="3" stopTime="0.00" timeLoss="34.87" rerouteNo="0" devices="tripinfo_85" vType="DEFAULT_VEHTYPE" speedFactor="1.00" vaporized=""/>
    <tripinfo id="75" depart="57.00" departLane="-11_0" departPos="5.10" departSpeed="0.00" departDelay="0.00" arrival="131.00" arrivalLane="68_0" arrivalPos="184.71" arrivalSpeed="13.62" duration="74.00" routeLength="711.58" waitingTime="4.00" waitingCount="2" stopTime="0.00" timeLoss="22.07" rerouteNo="0" devices="tripinfo_75" vType="DEFAULT_VEHTYPE" speedFactor="1.00" vaporized=""/>
    <tripinfo id="55" depart="41.00" departLane="-11_0" departPos="5.10" departSpeed="0.00" departDelay="2.00" arrival="131.00" arrivalLane="7_0" arrivalPos="192.38" arrivalSpeed="12.64" duration="90.00" routeLength="372.43" waitingTime="42.00" waitingCount="3" stopTime="0.00" timeLoss="63.15" rerouteNo="0" devices="tripinfo_55" vType="DEFAULT_VEHTYPE" speedFactor="1.00" vaporized=""/>
    <tripinfo id="96" depart="74.00" departLane="-68_0" departPos="5.10" departSpeed="0.00" departDelay="0.00" arrival="132.00" arrivalLane="19_0" arrivalPos="180.70" arrivalSpeed="13.19" duration="58.00" routeLength="580.85" waitingTime="1.00" waitingCount="1" stopTime="0.00" timeLoss="16.19" rerouteNo="0" devices="tripinfo_96" vType="DEFAULT_VEHTYPE" speedFactor="1.00" vaporized=""/>
    <tripinfo id="49" depart="38.00" departLane="-11_0" departPos="5.10" departSpeed="0.00" departDelay="2.00" arrival="132.00" arrivalLane="25_1" arrivalPos="195.06" arrivalSpeed="12.81" duration="94.00" routeLength="595.28" waitingTime="29.00" waitingCount="3" stopTime="0.00" timeLoss="50.37" rerouteNo="0" devices="tripinfo_49" vType="DEFAULT_VEHTYPE" speedFactor="1.00" vaporized=""/>
    <tripinfo id="84" depart="74.00" departLane="-63_0" departPos="5.10" departSpeed="0.00" departDelay="10.00" arrival="136.00" arrivalLane="25_2" arrivalPos="195.06" arrivalSpeed="12.93" duration="62.00" routeLength="363.44" waitingTime="15.00" waitingCount="2" stopTime="0.00" timeLoss="35.27" rerouteNo="0" devices="tripinfo_84" vType="DEFAULT_VEHTYPE" speedFactor="1.00" vaporized=""/>
    <tripinfo id="66" depart="49.00" departLane="-68_0" departPos="5.10" departSpeed="0.00" departDelay="0.00" arrival="137.00" arrivalLane="7_0" arrivalPos="192.38" arrivalSpeed="12.76" duration="88.00" routeLength="744.93" waitingTime="9.00" waitingCount="1" stopTime="0.00" timeLoss="33.57" rerouteNo="0" devices="tripinfo_66" vType="DEFAULT_VEHTYPE" speedFactor="1.00" vaporized=""/>
    <tripinfo id="62" depart="53.00" departLane="-7_0" departPos="5.10" departSpeed="0.00" departDelay="11.00" arrival="139.00" arrivalLane="68_0" arrivalPos="184.71" arrivalSpeed="13.65" duration="86.00" routeLength="774.44" waitingTime="3.00" waitingCount="1" stopTime="0.00" timeLoss="29.58" rerouteNo="0" devices="tripinfo_62" vType="DEFAULT_VEHTYPE" speedFactor="1.00" vaporized=""/>
    <tripinfo id="114" depart="87.00" departLane="-68_0" departPos="5.10" departSpeed="0.00" departDelay="0.00" arrival="139.00" arrivalLane="25_1" arrivalPos="195.06" arrivalSpeed="13.49" duration="52.00" routeLength="619.24" waitingTime="0.00" waitingCount="0" stopTime="0.00" timeLoss="6.70" rerouteNo="0" devices="tripinfo_114" vType="DEFAULT_VEHTYPE" speedFactor="1.00" vaporized=""/>
    <tripinfo id="91" depart="70.00" departLane="-68_0" departPos="5.10" departSpeed="0.00" departDelay="0.00" arrival="139.00" arrivalLane="7_0" arrivalPos="192.38" arrivalSpeed="12.99" duration="69.00" routeLength="744.93" waitingTime="0.00" waitingCount="0" stopTime="0.00" timeLoss="14.48" rerouteNo="0" devices="tripinfo_91" vType="DEFAULT_VEHTYPE" speedFactor="1.00" vaporized=""/>
    <tripinfo id="122" depart="92.00" departLane="-63_0" departPos="5.10" departSpeed="0.00" departDelay="2.00" arrival="140.00" arrivalLane="25_2" arrivalPos="195.06" arrivalSpeed="12.91" duration="48.00" routeLength="363.44" waitingTime="9.00" waitingCount="1" stopTime="0.00" timeLoss="21.52" rerouteNo="0" devices="tripinfo_122" vType="DEFAULT_VEHTYPE" speedFactor="1.00" vaporized=""/>
    <tripinfo id="86" depart="67.00" departLane="-25_0" departPos="5.10" departSpeed="0.00" departDelay="2.00" arrival="142.00" arrivalLane="19_4" arrivalPos="180.70" arrivalSpeed="13.42" duration="75.00" routeLength="399.66" waitingTime="35.00" waitingCount="2" stopTime="0.00" timeLoss="45.91" rerouteNo="0" devices="tripinfo_86" vType="DEFAULT_VEHTYPE" speedFactor="1.00" vaporized=""/>
    <tripinfo id="57" depart="39.00" departLane="-25_0" departPos="5.10" departSpeed="0.00" departDelay="0.00" arrival="143.00" arrivalLane="7_0" arrivalPos="192.38" arrivalSpeed="13.13" duration="104.00" routeLength="601.72" waitingTime="28.00" waitingCount="4" stopTime="0.00" timeLoss="60.58" rerouteNo="0" devices="tripinfo_57" vType="DEFAULT_VEHTYPE" speedFactor="1.00" vaporized=""/>
    <tripinfo id="102" depart="79.00" departLane="-25_0" departPos="5.10" departSpeed="0.00" departDelay="0.00" arrival="144.00" arrivalLane="19_4" arrivalPos="180.70" arrivalSpeed="13.09" duration="65.00" routeLength="399.66" waitingTime="23.00" waitingCount="2" stopTime="0.00" timeLoss="36.08" rerouteNo="0" devices="tripinfo_102" vType="DEFAULT_VEHTYPE" speedFactor="1.00" vaporized=""/>
    <tripinfo id="104" depart="82.00" departLane="-25_0" departPos="5.10" departSpeed="0.00" departDelay="2.00" arrival="146.00" arrivalLane="19_4" arrivalPos="180.70" arrivalSpeed="12.87" duration="64.00" routeLength="399.66" waitingTime="20.00" waitingCount="2" stopTime="0.00" timeLoss="34.88" rerouteNo="0" devices="tripinfo_104" vType="DEFAULT_VEHTYPE" speedFactor="1.00" vaporized=""/>
    <tripinfo id="125" depart="92.00" departLane="-25_0" departPos="5.10" departSpeed="0.00" departDelay="0.00" arrival="148.00" arrivalLane="19_4" arrivalPos="180.70" arrivalSpeed="12.90" duration="56.00" routeLength="399.66" waitingTime="14.00" waitingCount="1" stopTime="0.00" timeLoss="26.78" rerouteNo="0" devices="tripinfo_125" vType="DEFAULT_VEHTYPE" speedFactor="1.00" vaporized=""/>
    <tripinfo id="68" depart="53.00" departLane="-63_0" departPos="5.10" departSpeed="0.00" departDelay="3.00" arrival="148.00" arrivalLane="7_0" arrivalPos="192.38" arrivalSpeed="13.20" duration="95.00" routeLength="517.97" waitingTime="21.00" waitingCount="6" stopTime="0.00" timeLoss="57.30" rerouteNo="0" devices="tripinfo_68" vType="DEFAULT_VEHTYPE" speedFactor="1.00" vaporized=""/>
    <tripinfo id="64" depart="44.00" departLane="-19_0" departPos="5.10" departSpeed="0.00" departDelay="0.00" arrival="149.00" arrivalLane="11_0" arrivalPos="159.85" arrivalSpeed="13.78" duration="105.00" routeLength="571.24" waitingTime="47.00" waitingCount="3" stopTime="0.00" timeLoss="63.72" rerouteNo="0" devices="tripinfo_64" vType="DEFAULT_VEHTYPE" speedFactor="1.00" vaporized=""/>
    <tripinfo id="73" depart="62.00" departLane="-63_0" departPos="5.10" departSpeed="0.00" departDelay="6.00" arrival="150.00" arrivalLane="7_0" arrivalPos="192.38" arrivalSpeed="13.16" duration="88.00" routeLength="517.97" waitingTime="12.00" waitingCount="4" stopTime="0.00" timeLoss="50.41" rerouteNo="0" devices="tripinfo_73" vType="DEFAULT_VEHTYPE" speedFactor="1.00" vaporized=""/>
    <tripinfo id="69" depart="51.00" departLane="-11_0" departPos="5.10" departSpeed="0.00" departDelay="0.00" arrival="156.00" arrivalLane="7_0" arrivalPos="192.38" arrivalSpeed="13.54" duration="105.00" routeLength="372.43" waitingTime="49.00" waitingCount="3" stopTime="0.00" timeLoss="77.86" rerouteNo="0" devices="tripinfo_69" vType="DEFAULT_VEHTYPE" speedFactor="1.00" vaporized=""/>
    <tripinfo id="100" depart="80.00" departLane="-68_0" departPos="5.10" departSpeed="0.00" departDelay="2.00" arrival="157.00" arrivalLane="63_1" arrivalPos="135.17" arrivalSpeed="13.69" duration="77.00" routeLength="561.02" waitingTime="13.00" waitingCount="3" stopTime="0.00" timeLoss="36.51" rerouteNo="0" devices="tripinfo_100" vType="DEFAULT_VEHTYPE" speedFactor="1.00" vaporized=""/>
    <tripinfo id="174" depart="126.00" departLane="-63_0" departPos="5.10" departSpeed="0.00" departDelay="0.00" arrival="157.00" arrivalLane="19_3" arrivalPos="180.70" arrivalSpeed="12.78" duration="31.00" routeLength="354.09" waitingTime="0.00" waitingCount="0" stopTime="0.00" timeLoss="5.04" rerouteNo="0" devices="tripinfo_174" vType="DEFAULT_VEHTYPE" speedFactor="1.00" vaporized=""/>
    <tripinfo id="166" depart="123.00" departLane="-25_0" departPos="5.10" departSpeed="0.00" departDelay="0.00" arrival="158.00" arrivalLane="19_4" arrivalPos="180.70" arrivalSpeed="12.64" duration="35.00" routeLength="399.66" waitingTime="0.00" waitingCount="0" stopTime="0.00" timeLoss="6.13" rerouteNo="0" devices="tripinfo_166" vType="DEFAULT_VEHTYPE" speedFactor="1.00" vaporized=""/>
    <tripinfo id="11" depart="6.00" departLane="-7_0" departPos="5.10" departSpeed="0.00" departDelay="1.00" arrival="160.00" arrivalLane="7_0" arrivalPos="192.38" arrivalSpeed="13.25" duration="154.00" routeLength="1210.38" waitingTime="27.00" waitingCount="3" stopTime="0.00" timeLoss="66.08" rerouteNo="0" devices="tripinfo_11" vType="DEFAULT_VEHTYPE" speedFactor="1.00" vaporized=""/>