<?xml version="1.0" encoding="UTF-8"?>

<!-- generated on 06/21/18 21:52:40 by Eclipse SUMO GUI Version v0_32_0+1428-4ab3f27cbd
<configuration xmlns:xsi="http://www.w3.org/2001/XMLSchema-instance" xsi:noNamespaceSchemaLocation="http://sumo.dlr.de/xsd/sumoConfiguration.xsd">

    <input>
        <net-file value="./neighborhood/neighborhood.net.xml"/>
        <route-files value="./neighborhood/routes.rou.alt.xml"/>
        <additional-files value="./neighborhood/e2.add.xml"/>
    </input>

    <output>
        <tripinfo-output value="./neighborhood/neighborhood_tripinfo-output_MixedScheduler.xml"/>
    </output>

    <traci_server>
        <remote-port value="51791"/>
    </traci_server>

</configuration>
-->

<tripinfos xmlns:xsi="http://www.w3.org/2001/XMLSchema-instance" xsi:noNamespaceSchemaLocation="http://sumo.dlr.de/xsd/tripinfo_file.xsd">
    <tripinfo id="1" depart="0.00" departLane="-11_0" departPos="5.10" departSpeed="0.00" departDelay="0.00" arrival="32.00" arrivalLane="7_0" arrivalPos="192.38" arrivalSpeed="12.68" duration="32.00" routeLength="372.43" waitingTime="0.00" waitingCount="0" stopTime="0.00" timeLoss="4.96" rerouteNo="0" devices="tripinfo_1" vType="DEFAULT_VEHTYPE" speedFactor="1.00" vaporized=""/>
    <tripinfo id="10" depart="4.00" departLane="-7_0" departPos="5.10" departSpeed="0.00" departDelay="0.00" arrival="34.00" arrivalLane="11_0" arrivalPos="159.85" arrivalSpeed="13.22" duration="30.00" routeLength="352.93" waitingTime="0.00" waitingCount="0" stopTime="0.00" timeLoss="3.86" rerouteNo="0" devices="tripinfo_10" vType="DEFAULT_VEHTYPE" speedFactor="1.00" vaporized=""/>
    <tripinfo id="7" depart="2.00" departLane="-63_0" departPos="5.10" departSpeed="0.00" departDelay="0.00" arrival="34.00" arrivalLane="25_2" arrivalPos="195.06" arrivalSpeed="13.68" duration="32.00" routeLength="363.44" waitingTime="0.00" waitingCount="0" stopTime="0.00" timeLoss="5.79" rerouteNo="0" devices="tripinfo_7" vType="DEFAULT_VEHTYPE" speedFactor="1.00" vaporized=""/>
    <tripinfo id="5" depart="4.00" departLane="-19_0" departPos="5.10" departSpeed="0.00" departDelay="3.00" arrival="36.00" arrivalLane="25_0" arrivalPos="195.06" arrivalSpeed="13.79" duration="32.00" routeLength="375.90" waitingTime="0.00" waitingCount="0" stopTime="0.00" timeLoss="4.12" rerouteNo="0" devices="tripinfo_5" vType="DEFAULT_VEHTYPE" speedFactor="1.00" vaporized=""/>
    <tripinfo id="13" depart="9.00" departLane="-25_0" departPos="5.10" departSpeed="0.00" departDelay="3.00" arrival="38.00" arrivalLane="63_0" arrivalPos="135.17" arrivalSpeed="13.41" duration="29.00" routeLength="347.68" waitingTime="0.00" waitingCount="0" stopTime="0.00" timeLoss="3.92" rerouteNo="0" devices="tripinfo_13" vType="DEFAULT_VEHTYPE" speedFactor="1.00" vaporized=""/>
    <tripinfo id="14" depart="12.00" departLane="-25_0" departPos="5.10" departSpeed="0.00" departDelay="1.00" arrival="43.00" arrivalLane="63_0" arrivalPos="135.17" arrivalSpeed="12.77" duration="31.00" routeLength="347.68" waitingTime="0.00" waitingCount="0" stopTime="0.00" timeLoss="5.18" rerouteNo="0" devices="tripinfo_14" vType="DEFAULT_VEHTYPE" speedFactor="1.00" vaporized=""/>
    <tripinfo id="18" depart="15.00" departLane="-25_0" departPos="5.10" departSpeed="0.00" departDelay="3.00" arrival="45.00" arrivalLane="63_0" arrivalPos="135.17" arrivalSpeed="13.12" duration="30.00" routeLength="347.68" waitingTime="0.00" waitingCount="0" stopTime="0.00" timeLoss="4.83" rerouteNo="0" devices="tripinfo_18" vType="DEFAULT_VEHTYPE" speedFactor="1.00" vaporized=""/>
    <tripinfo id="20" depart="18.00" departLane="-25_0" departPos="5.10" departSpeed="0.00" departDelay="6.00" arrival="49.00" arrivalLane="63_0" arrivalPos="135.17" arrivalSpeed="12.66" duration="31.00" routeLength="347.68" waitingTime="0.00" waitingCount="0" stopTime="0.00" timeLoss="5.13" rerouteNo="0" devices="tripinfo_20" vType="DEFAULT_VEHTYPE" speedFactor="1.00" vaporized=""/>
    <tripinfo id="12" depart="6.00" departLane="-25_0" departPos="5.10" departSpeed="0.00" departDelay="0.00" arrival="60.00" arrivalLane="68_1" arrivalPos="184.71" arrivalSpeed="13.35" duration="54.00" routeLength="630.42" waitingTime="0.00" waitingCount="0" stopTime="0.00" timeLoss="8.58" rerouteNo="0" devices="tripinfo_12" vType="DEFAULT_VEHTYPE" speedFactor="1.00" vaporized=""/>
    <tripinfo id="29" depart="28.00" departLane="-25_0" departPos="5.10" departSpeed="0.00" departDelay="10.00" arrival="61.00" arrivalLane="19_4" arrivalPos="180.70" arrivalSpeed="13.86" duration="33.00" routeLength="399.66" waitingTime="0.00" waitingCount="0" stopTime="0.00" timeLoss="4.09" rerouteNo="0" devices="tripinfo_29" vType="DEFAULT_VEHTYPE" speedFactor="1.00" vaporized=""/>
    <tripinfo id="25" depart="23.00" departLane="-7_0" departPos="5.10" departSpeed="0.00" departDelay="7.00" arrival="62.00" arrivalLane="11_0" arrivalPos="159.85" arrivalSpeed="13.42" duration="39.00" routeLength="352.93" waitingTime="2.00" waitingCount="1" stopTime="0.00" timeLoss="13.06" rerouteNo="0" devices="tripinfo_25" vType="DEFAULT_VEHTYPE" speedFactor="1.00" vaporized=""/>
    <tripinfo id="8" depart="2.00" departLane="-68_0" departPos="5.10" departSpeed="0.00" departDelay="0.00" arrival="62.00" arrivalLane="7_0" arrivalPos="192.38" arrivalSpeed="12.75" duration="60.00" routeLength="744.93" waitingTime="0.00" waitingCount="0" stopTime="0.00" timeLoss="5.47" rerouteNo="0" devices="tripinfo_8" vType="DEFAULT_VEHTYPE" speedFactor="1.00" vaporized=""/>
    <tripinfo id="32" depart="29.00" departLane="-7_0" departPos="5.10" departSpeed="0.00" departDelay="10.00" arrival="66.00" arrivalLane="11_0" arrivalPos="159.85" arrivalSpeed="12.99" duration="37.00" routeLength="352.93" waitingTime="0.00" waitingCount="0" stopTime="0.00" timeLoss="10.86" rerouteNo="0" devices="tripinfo_32" vType="DEFAULT_VEHTYPE" speedFactor="1.00" vaporized=""/>
    <tripinfo id="38" depart="28.00" departLane="-63_0" departPos="5.10" departSpeed="0.00" departDelay="0.00" arrival="69.00" arrivalLane="19_2" arrivalPos="180.70" arrivalSpeed="13.48" duration="41.00" routeLength="354.09" waitingTime="7.00" waitingCount="1" stopTime="0.00" timeLoss="15.29" rerouteNo="0" devices="tripinfo_38" vType="DEFAULT_VEHTYPE" speedFactor="1.00" vaporized=""/>
    <tripinfo id="21" depart="22.00" departLane="-25_0" departPos="5.10" departSpeed="0.00" departDelay="8.00" arrival="73.00" arrivalLane="68_1" arrivalPos="184.71" arrivalSpeed="12.81" duration="51.00" routeLength="630.42" waitingTime="0.00" waitingCount="0" stopTime="0.00" timeLoss="5.59" rerouteNo="0" devices="tripinfo_21" vType="DEFAULT_VEHTYPE" speedFactor="1.00" vaporized=""/>
    <tripinfo id="27" depart="25.00" departLane="-25_0" departPos="5.10" departSpeed="0.00" departDelay="8.00" arrival="77.00" arrivalLane="68_1" arrivalPos="184.71" arrivalSpeed="13.28" duration="52.00" routeLength="630.42" waitingTime="0.00" waitingCount="0" stopTime="0.00" timeLoss="6.30" rerouteNo="0" devices="tripinfo_27" vType="DEFAULT_VEHTYPE" speedFactor="1.00" vaporized=""/>
    <tripinfo id="56" depart="47.00" departLane="-7_0" departPos="5.10" departSpeed="0.00" departDelay="8.00" arrival="80.00" arrivalLane="11_0" arrivalPos="159.85" arrivalSpeed="13.70" duration="33.00" routeLength="352.93" waitingTime="0.00" waitingCount="0" stopTime="0.00" timeLoss="7.34" rerouteNo="0" devices="tripinfo_56" vType="DEFAULT_VEHTYPE" speedFactor="1.00" vaporized=""/>
    <tripinfo id="35" depart="26.00" departLane="-68_0" departPos="5.10" departSpeed="0.00" departDelay="0.00" arrival="82.00" arrivalLane="19_0" arrivalPos="180.70" arrivalSpeed="12.90" duration="56.00" routeLength="580.85" waitingTime="1.00" waitingCount="1" stopTime="0.00" timeLoss="13.79" rerouteNo="0" devices="tripinfo_35" vType="DEFAULT_VEHTYPE" speedFactor="1.00" vaporized=""/>
    <tripinfo id="33" depart="23.00" departLane="-68_0" departPos="5.10" departSpeed="0.00" departDelay="0.00" arrival="90.00" arrivalLane="11_3" arrivalPos="159.85" arrivalSpeed="12.83" duration="67.00" routeLength="703.16" waitingTime="4.00" waitingCount="1" stopTime="0.00" timeLoss="14.84" rerouteNo="0" devices="tripinfo_33" vType="DEFAULT_VEHTYPE" speedFactor="1.00" vaporized=""/>
    <tripinfo id="67" depart="50.00" departLane="-63_0" departPos="5.10" departSpeed="0.00" departDelay="0.00" arrival="91.00" arrivalLane="11_1" arrivalPos="159.85" arrivalSpeed="12.72" duration="41.00" routeLength="492.37" waitingTime="0.00" waitingCount="0" stopTime="0.00" timeLoss="5.52" rerouteNo="0" devices="tripinfo_67" vType="DEFAULT_VEHTYPE" speedFactor="1.00" vaporized=""/>
    <tripinfo id="72" depart="59.00" departLane="-63_0" departPos="5.10" departSpeed="0.00" departDelay="4.00" arrival="91.00" arrivalLane="19_2" arrivalPos="180.70" arrivalSpeed="13.82" duration="32.00" routeLength="354.09" waitingTime="0.00" waitingCount="0" stopTime="0.00" timeLoss="6.32" rerouteNo="0" devices="tripinfo_72" vType="DEFAULT_VEHTYPE" speedFactor="1.00" vaporized=""/>
    <tripinfo id="53" depart="38.00" departLane="-63_0" departPos="5.10" departSpeed="0.00" departDelay="0.00" arrival="94.00" arrivalLane="11_0" arrivalPos="159.85" arrivalSpeed="13.47" duration="56.00" routeLength="492.37" waitingTime="2.00" waitingCount="1" stopTime="0.00" timeLoss="20.18" rerouteNo="0" devices="tripinfo_53" vType="DEFAULT_VEHTYPE" speedFactor="1.00" vaporized=""/>
    <tripinfo id="70" depart="56.00" departLane="-63_0" departPos="5.10" departSpeed="0.00" departDelay="4.00" arrival="97.00" arrivalLane="11_1" arrivalPos="159.85" arrivalSpeed="13.70" duration="41.00" routeLength="492.37" waitingTime="0.00" waitingCount="0" stopTime="0.00" timeLoss="5.26" rerouteNo="0" devices="tripinfo_70" vType="DEFAULT_VEHTYPE" speedFactor="1.00" vaporized=""/>
    <tripinfo id="58" depart="41.00" departLane="-63_0" departPos="5.10" departSpeed="0.00" departDelay="1.00" arrival="97.00" arrivalLane="7_0" arrivalPos="192.38" arrivalSpeed="13.70" duration="56.00" routeLength="517.97" waitingTime="1.00" waitingCount="1" stopTime="0.00" timeLoss="18.61" rerouteNo="0" devices="tripinfo_58" vType="DEFAULT_VEHTYPE" speedFactor="1.00" vaporized=""/>
    <tripinfo id="17" depart="14.00" departLane="-7_0" departPos="5.10" departSpeed="0.00" departDelay="3.00" arrival="99.00" arrivalLane="68_0" arrivalPos="184.71" arrivalSpeed="12.82" duration="85.00" routeLength="774.44" waitingTime="9.00" waitingCount="2" stopTime="0.00" timeLoss="29.09" rerouteNo="0" devices="tripinfo_17" vType="DEFAULT_VEHTYPE" speedFactor="1.00" vaporized=""/>
    <tripinfo id="68" depart="53.00" departLane="-63_0" departPos="5.10" departSpeed="0.00" departDelay="3.00" arrival="99.00" arrivalLane="7_0" arrivalPos="192.38" arrivalSpeed="13.56" duration="46.00" routeLength="517.97" waitingTime="0.00" waitingCount="0" stopTime="0.00" timeLoss="8.50" rerouteNo="0" devices="tripinfo_68" vType="DEFAULT_VEHTYPE" speedFactor="1.00" vaporized=""/>
    <tripinfo id="81" depart="62.00" departLane="-7_0" departPos="5.10" departSpeed="0.00" departDelay="0.00" arrival="100.00" arrivalLane="11_0" arrivalPos="159.85" arrivalSpeed="13.84" duration="38.00" routeLength="352.93" waitingTime="2.00" waitingCount="1" stopTime="0.00" timeLoss="12.33" rerouteNo="0" devices="tripinfo_81" vType="DEFAULT_VEHTYPE" speedFactor="1.00" vaporized=""/>
    <tripinfo id="78" depart="68.00" departLane="-63_0" departPos="5.10" departSpeed="0.00" departDelay="9.00" arrival="100.00" arrivalLane="19_2" arrivalPos="180.70" arrivalSpeed="12.88" duration="32.00" routeLength="354.09" waitingTime="0.00" waitingCount="0" stopTime="0.00" timeLoss="5.70" rerouteNo="0" devices="tripinfo_78" vType="DEFAULT_VEHTYPE" speedFactor="1.00" vaporized=""/>
    <tripinfo id="34" depart="32.00" departLane="-7_0" departPos="5.10" departSpeed="0.00" departDelay="6.00" arrival="101.00" arrivalLane="68_0" arrivalPos="184.71" arrivalSpeed="12.67" duration="69.00" routeLength="774.44" waitingTime="0.00" waitingCount="0" stopTime="0.00" timeLoss="12.90" rerouteNo="0" devices="tripinfo_34" vType="DEFAULT_VEHTYPE" speedFactor="1.00" vaporized=""/>
    <tripinfo id="80" depart="70.00" departLane="-63_0" departPos="5.10" departSpeed="0.00" departDelay="8.00" arrival="103.00" arrivalLane="19_2" arrivalPos="180.70" arrivalSpeed="13.88" duration="33.00" routeLength="354.09" waitingTime="0.00" waitingCount="0" stopTime="0.00" timeLoss="7.21" rerouteNo="0" devices="tripinfo_80" vType="DEFAULT_VEHTYPE" speedFactor="1.00" vaporized=""/>
    <tripinfo id="65" depart="45.00" departLane="-68_0" departPos="5.10" departSpeed="0.00" departDelay="0.00" arrival="104.00" arrivalLane="63_1" arrivalPos="135.17" arrivalSpeed="13.38" duration="59.00" routeLength="561.02" waitingTime="1.00" waitingCount="1" stopTime="0.00" timeLoss="17.81" rerouteNo="0" devices="tripinfo_65" vType="DEFAULT_VEHTYPE" speedFactor="1.00" vaporized=""/>
    <tripinfo id="22" depart="15.00" departLane="-11_0" departPos="5.10" departSpeed="0.00" departDelay="0.00" arrival="105.00" arrivalLane="7_0" arrivalPos="192.38" arrivalSpeed="13.21" duration="90.00" routeLength="372.43" waitingTime="48.00" waitingCount="2" stopTime="0.00" timeLoss="62.73" rerouteNo="0" devices="tripinfo_22" vType="DEFAULT_VEHTYPE" speedFactor="1.00" vaporized=""/>
    <tripinfo id="30" depart="31.00" departLane="-25_0" departPos="5.10" departSpeed="0.00" departDelay="13.00" arrival="110.00" arrivalLane="19_4" arrivalPos="180.70" arrivalSpeed="12.89" duration="79.00" routeLength="399.66" waitingTime="41.00" waitingCount="1" stopTime="0.00" timeLoss="49.64" rerouteNo="0" devices="tripinfo_30" vType="DEFAULT_VEHTYPE" speedFactor="1.00" vaporized=""/>
    <tripinfo id="73" depart="62.00" departLane="-63_0" departPos="5.10" departSpeed="0.00" departDelay="6.00" arrival="111.00" arrivalLane="7_0" arrivalPos="192.38" arrivalSpeed="12.84" duration="49.00" routeLength="517.97" waitingTime="1.00" waitingCount="1" stopTime="0.00" timeLoss="11.52" rerouteNo="0" devices="tripinfo_73" vType="DEFAULT_VEHTYPE" speedFactor="1.00" vaporized=""/>
    <tripinfo id="86" depart="67.00" departLane="-25_0" departPos="5.10" departSpeed="0.00" departDelay="2.00" arrival="112.00" arrivalLane="19_4" arrivalPos="180.70" arrivalSpeed="13.62" duration="45.00" routeLength="399.66" waitingTime="5.00" waitingCount="1" stopTime="0.00" timeLoss="15.63" rerouteNo="0" devices="tripinfo_86" vType="DEFAULT_VEHTYPE" speedFactor="1.00" vaporized=""/>
    <tripinfo id="102" depart="79.00" departLane="-25_0" departPos="5.10" departSpeed="0.00" departDelay="0.00" arrival="114.00" arrivalLane="19_4" arrivalPos="180.70" arrivalSpeed="12.84" duration="35.00" routeLength="399.66" waitingTime="0.00" waitingCount="0" stopTime="0.00" timeLoss="5.40" rerouteNo="0" devices="tripinfo_102" vType="DEFAULT_VEHTYPE" speedFactor="1.00" vaporized=""/>
    <tripinfo id="82" depart="65.00" departLane="-7_0" departPos="5.10" departSpeed="0.00" departDelay="2.00" arrival="115.00" arrivalLane="11_0" arrivalPos="159.85" arrivalSpeed="13.02" duration="50.00" routeLength="352.93" waitingTime="11.00" waitingCount="2" stopTime="0.00" timeLoss="24.56" rerouteNo="0" devices="tripinfo_82" vType="DEFAULT_VEHTYPE" speedFactor="1.00" vaporized=""/>
    <tripinfo id="104" depart="81.00" departLane="-25_0" departPos="5.10" departSpeed="0.00" departDelay="1.00" arrival="115.00" arrivalLane="19_4" arrivalPos="180.70" arrivalSpeed="13.19" duration="34.00" routeLength="399.66" waitingTime="0.00" waitingCount="0" stopTime="0.00" timeLoss="5.22" rerouteNo="0" devices="tripinfo_104" vType="DEFAULT_VEHTYPE" speedFactor="1.00" vaporized=""/>
    <tripinfo id="83" depart="64.00" departLane="-25_0" departPos="5.10" departSpeed="0.00" departDelay="0.00" arrival="117.00" arrivalLane="63_0" arrivalPos="135.17" arrivalSpeed="13.08" duration="53.00" routeLength="347.68" waitingTime="15.00" waitingCount="1" stopTime="0.00" timeLoss="27.23" rerouteNo="0" devices="tripinfo_83" vType="DEFAULT_VEHTYPE" speedFactor="1.00" vaporized=""/>
    <tripinfo id="62" depart="53.00" departLane="-7_0" departPos="5.10" departSpeed="0.00" departDelay="11.00" arrival="117.00" arrivalLane="68_0" arrivalPos="184.71" arrivalSpeed="12.99" duration="64.00" routeLength="774.44" waitingTime="0.00" waitingCount="0" stopTime="0.00" timeLoss="7.80" rerouteNo="0" devices="tripinfo_62" vType="DEFAULT_VEHTYPE" speedFactor="1.00" vaporized=""/>
    <tripinfo id="85" depart="68.00" departLane="-7_0" departPos="5.10" departSpeed="0.00" departDelay="4.00" arrival="117.00" arrivalLane="11_0" arrivalPos="159.85" arrivalSpeed="13.71" duration="49.00" routeLength="352.93" waitingTime="8.00" waitingCount="1" stopTime="0.00" timeLoss="23.21" rerouteNo="0" devices="tripinfo_85" vType="DEFAULT_VEHTYPE" speedFactor="1.00" vaporized=""/>
    <tripinfo id="40" depart="30.00" departLane="-68_0" departPos="5.10" departSpeed="0.00" departDelay="0.00" arrival="120.00" arrivalLane="7_0" arrivalPos="192.38" arrivalSpeed="13.70" duration="90.00" routeLength="744.93" waitingTime="21.00" waitingCount="1" stopTime="0.00" timeLoss="34.98" rerouteNo="0" devices="tripinfo_40" vType="DEFAULT_VEHTYPE" speedFactor="1.00" vaporized=""/>
    <tripinfo id="60" depart="42.00" departLane="-68_0" departPos="5.10" departSpeed="0.00" departDelay="0.00" arrival="121.00" arrivalLane="7_0" arrivalPos="192.38" arrivalSpeed="13.80" duration="79.00" routeLength="744.93" waitingTime="9.00" waitingCount="2" stopTime="0.00" timeLoss="24.66" rerouteNo="0" devices="tripinfo_60" vType="DEFAULT_VEHTYPE" speedFactor="1.00" vaporized=""/>
    <tripinfo id="66" depart="49.00" departLane="-68_0" departPos="5.10" departSpeed="0.00" departDelay="0.00" arrival="123.00" arrivalLane="7_0" arrivalPos="192.38" arrivalSpeed="13.17" duration="74.00" routeLength="744.93" waitingTime="3.00" waitingCount="1" stopTime="0.00" timeLoss="19.64" rerouteNo="0" devices="tripinfo_66" vType="DEFAULT_VEHTYPE" speedFactor="1.00" vaporized=""/>
    <tripinfo id="6" depart="7.00" departLane="-19_0" departPos="5.10" departSpeed="0.00" departDelay="5.00" arrival="124.00" arrivalLane="63_0" arrivalPos="135.17" arrivalSpeed="12.95" duration="117.00" routeLength="348.55" waitingTime="80.00" waitingCount="1" stopTime="0.00" timeLoss="91.15" rerouteNo="0" devices="tripinfo_6" vType="DEFAULT_VEHTYPE" speedFactor="1.00" vaporized=""/>
    <tripinfo id="75" depart="57.00" departLane="-11_0" departPos="5.10" departSpeed="0.00" departDelay="0.00" arrival="124.00" arrivalLane="68_0" arrivalPos="184.71" arrivalSpeed="13.79" duration="67.00" routeLength="711.58" waitingTime="5.00" waitingCount="1" stopTime="0.00" timeLoss="15.49" rerouteNo="0" devices="tripinfo_75" vType="DEFAULT_VEHTYPE" speedFactor="1.00" vaporized=""/>
    <tripinfo id="24" depart="16.00" departLane="-11_0" departPos="5.10" departSpeed="0.00" departDelay="0.00" arrival="126.00" arrivalLane="19_2" arrivalPos="180.70" arrivalSpeed="13.15" duration="110.00" routeLength="569.92" waitingTime="52.00" waitingCount="2" stopTime="0.00" timeLoss="68.37" rerouteNo="0" devices="tripinfo_24" vType="DEFAULT_VEHTYPE" speedFactor="1.00" vaporized=""/>
    <tripinfo id="23" depart="20.00" departLane="-7_0" departPos="5.10" departSpeed="0.00" departDelay="5.00" arrival="127.00" arrivalLane="19_1" arrivalPos="180.70" arrivalSpeed="12.62" duration="107.00" routeLength="610.07" waitingTime="41.00" waitingCount="2" stopTime="0.00" timeLoss="62.49" rerouteNo="0" devices="tripinfo_23" vType="DEFAULT_VEHTYPE" speedFactor="1.00" vaporized=""/>
    <tripinfo id="4" depart="1.00" departLane="-11_0" departPos="5.10" departSpeed="0.00" departDelay="0.00" arrival="127.00" arrivalLane="19_0" arrivalPos="180.70" arrivalSpeed="12.71" duration="126.00" routeLength="569.92" waitingTime="73.00" waitingCount="1" stopTime="0.00" timeLoss="84.22" rerouteNo="0" devices="tripinfo_4" vType="DEFAULT_VEHTYPE" speedFactor="1.00" vaporized=""/>
    <tripinfo id="36" depart="27.00" departLane="-19_0" departPos="5.10" departSpeed="0.00" departDelay="0.00" arrival="128.00" arrivalLane="25_0" arrivalPos="195.06" arrivalSpeed="13.73" duration="101.00" routeLength="375.90" waitingTime="64.00" waitingCount="1" stopTime="0.00" timeLoss="73.75" rerouteNo="0" devices="tripinfo_36" vType="DEFAULT_VEHTYPE" speedFactor="1.00" vaporized=""/>
    <tripinfo id="47" depart="35.00" departLane="-11_0" departPos="5.10" departSpeed="0.00" departDelay="1.00" arrival="129.00" arrivalLane="19_1" arrivalPos="180.70" arrivalSpeed="13.05" duration="94.00" routeLength="569.92" waitingTime="35.00" waitingCount="2" stopTime="0.00" timeLoss="52.18" rerouteNo="0" devices="tripinfo_47" vType="DEFAULT_VEHTYPE" speedFactor="1.00" vaporized=""/>
    <tripinfo id="16" depart="11.00" departLane="-11_0" departPos="5.10" departSpeed="0.00" departDelay="0.00" arrival="129.00" arrivalLane="19_0" arrivalPos="180.70" arrivalSpeed="13.47" duration="118.00" routeLength="569.92" waitingTime="60.00" waitingCount="2" stopTime="0.00" timeLoss="76.28" rerouteNo="0" devices="tripinfo_16" vType="DEFAULT_VEHTYPE" speedFactor="1.00" vaporized=""/>
    <tripinfo id="37" depart="30.00" departLane="-19_0" departPos="5.10" departSpeed="0.00" departDelay="3.00" arrival="130.00" arrivalLane="25_0" arrivalPos="195.06" arrivalSpeed="12.72" duration="100.00" routeLength="375.90" waitingTime="62.00" waitingCount="1" stopTime="0.00" timeLoss="72.66" rerouteNo="0" devices="tripinfo_37" vType="DEFAULT_VEHTYPE" speedFactor="1.00" vaporized=""/>
    <tripinfo id="51" depart="37.00" departLane="-19_0" departPos="5.10" departSpeed="0.00" departDelay="0.00" arrival="132.00" arrivalLane="25_0" arrivalPos="195.06" arrivalSpeed="13.13" duration="95.00" routeLength="375.90" waitingTime="56.00" waitingCount="1" stopTime="0.00" timeLoss="67.45" rerouteNo="0" devices="tripinfo_51" vType="DEFAULT_VEHTYPE" speedFactor="1.00" vaporized=""/>
    <tripinfo id="92" depart="72.00" departLane="-19_0" departPos="5.10" departSpeed="0.00" departDelay="1.00" arrival="134.00" arrivalLane="25_0" arrivalPos="195.06" arrivalSpeed="12.76" duration="62.00" routeLength="375.90" waitingTime="23.00" waitingCount="1" stopTime="0.00" timeLoss="34.28" rerouteNo="0" devices="tripinfo_92" vType="DEFAULT_VEHTYPE" speedFactor="1.00" vaporized=""/>
    <tripinfo id="57" depart="39.00" departLane="-25_0" departPos="5.10" departSpeed="0.00" departDelay="0.00" arrival="137.00" arrivalLane="7_0" arrivalPos="192.38" arrivalSpeed="13.50" duration="98.00" routeLength="601.72" waitingTime="36.00" waitingCount="2" stopTime="0.00" timeLoss="54.12" rerouteNo="0" devices="tripinfo_57" vType="DEFAULT_VEHTYPE" speedFactor="1.00" vaporized=""/>
    <tripinfo id="96" depart="74.00" departLane="-68_0" departPos="5.10" departSpeed="0.00" departDelay="0.00" arrival="139.00" arrivalLane="19_0" arrivalPos="180.70" arrivalSpeed="12.91" duration="65.00" routeLength="580.85" waitingTime="7.00" waitingCount="2" stopTime="0.00" timeLoss="22.31" rerouteNo="0" devices="tripinfo_96" vType="DEFAULT_VEHTYPE" speedFactor="1.00" vaporized=""/>
    <tripinfo id="91" depart="70.00" departLane="-68_0" departPos="5.10" departSpeed="0.00" departDelay="0.00" arrival="143.00" arrivalLane="7_0" arrivalPos="192.38" arrivalSpeed="13.26" duration="73.00" routeLength="744.93" waitingTime="6.00" waitingCount="1" stopTime="0.00" timeLoss="18.58" rerouteNo="0" devices="tripinfo_91" vType="DEFAULT_VEHTYPE" speedFactor="1.00" vaporized=""/>
    <tripinfo id="15" depart="11.00" departLane="-7_0" departPos="5.10" departSpeed="0.00" departDelay="0.00" arrival="144.00" arrivalLane="25_1" arrivalPos="195.06" arrivalSpeed="13.84" duration="133.00" routeLength="635.43" waitingTime="70.00" waitingCount="2" stopTime="0.00" timeLoss="87.29" rerouteNo="0" devices="tripinfo_15" vType="DEFAULT_VEHTYPE" speedFactor="1.00" vaporized=""/>
    <tripinfo id="48" depart="35.00" departLane="-7_0" departPos="5.10" departSpeed="0.00" departDelay="1.00" arrival="147.00" arrivalLane="25_1" arrivalPos="195.06" arrivalSpeed="13.76" duration="112.00" routeLength="635.43" waitingTime="42.00" waitingCount="2" stopTime="0.00" timeLoss="65.66" rerouteNo="0" devices="tripinfo_48" vType="DEFAULT_VEHTYPE" speedFactor="1.00" vaporized=""/>
    <tripinfo id="63" depart="42.00" departLane="-25_0" departPos="5.10" departSpeed="0.00" departDelay="0.00" arrival="147.00" arrivalLane="7_0" arrivalPos="192.38" arrivalSpeed="13.57" duration="105.00" routeLength="601.72" waitingTime="39.00" waitingCount="3" stopTime="0.00" timeLoss="61.46" rerouteNo="0" devices="tripinfo_63" vType="DEFAULT_VEHTYPE" speedFactor="1.00" vaporized=""/>
    <tripinfo id="118" depart="88.00" departLane="-11_0" departPos="5.10" departSpeed="0.00" departDelay="0.00" arrival="149.00" arrivalLane="68_0" arrivalPos="184.71" arrivalSpeed="13.77" duration="61.00" routeLength="711.58" waitingTime="0.00" waitingCount="0" stopTime="0.00" timeLoss="9.61" rerouteNo="0" devices="tripinfo_118" vType="DEFAULT_VEHTYPE" speedFactor="1.00" vaporized=""/>
    <tripinfo id="52" depart="41.00" departLane="-7_0" departPos="5.10" departSpeed="0.00" departDelay="4.00" arrival="149.00" arrivalLane="25_1" arrivalPos="195.06" arrivalSpeed="12.72" duration="108.00" routeLength="635.43" waitingTime="37.00" waitingCount="2" stopTime="0.00" timeLoss="61.75" rerouteNo="0" devices="tripinfo_52" vType="DEFAULT_VEHTYPE" speedFactor="1.00" vaporized=""/>
    <tripinfo id="95" depart="75.00" departLane="-19_0" departPos="5.10" departSpeed="0.00" departDelay="1.00" arrival="151.00" arrivalLane="11_3" arrivalPos="159.85" arrivalSpeed="12.72" duration="76.00" routeLength="571.24" waitingTime="16.00" waitingCount="2" stopTime="0.00" timeLoss="34.41" rerouteNo="0" devices="tripinfo_95" vType="DEFAULT_VEHTYPE" speedFactor="1.00" vaporized=""/>
    <tripinfo id="74" depart="56.00" departLane="-25_0" departPos="5.10" departSpeed="0.00" departDelay="0.00" arrival="151.00" arrivalLane="11_2" arrivalPos="159.85" arrivalSpeed="13.72" duration="95.00" routeLength="576.12" waitingTime="34.00" waitingCount="2" stopTime="0.00" timeLoss="53.03" rerouteNo="0" devices="tripinfo_74" vType="DEFAULT_VEHTYPE" speedFactor="1.00" vaporized=""/>
    <tripinfo id="127" depart="94.00" departLane="-11_0" departPos="5.10" departSpeed="0.00" departDelay="0.00" arrival="151.00" arrivalLane="68_0" arrivalPos="184.71" arrivalSpeed="13.75" duration="57.00" routeLength="711.58" waitingTime="0.00" waitingCount="0" stopTime="0.00" timeLoss="5.57" rerouteNo="0" devices="tripinfo_127" vType="DEFAULT_VEHTYPE" speedFactor="1.00" vaporized=""/>
    <tripinfo id="79" depart="60.00" departLane="-25_0" departPos="5.10" departSpeed="0.00" departDelay="0.00" arrival="152.00" arrivalLane="7_0" arrivalPos="192.38" arrivalSpeed="13.71" duration="92.00" routeLength="601.72" waitingTime="25.00" waitingCount="2" stopTime="0.00" timeLoss="48.68" rerouteNo="0" devices="tripinfo_79" vType="DEFAULT_VEHTYPE" speedFactor="1.00" vaporized=""/>
    <tripinfo id="45" depart="36.00" departLane="-25_0" departPos="5.10" departSpeed="0.00" departDelay="3.00" arrival="153.00" arrivalLane="11_0" arrivalPos="159.85" arrivalSpeed="13.72" duration="117.00" routeLength="576.12" waitingTime="57.00" waitingCount="3" stopTime="0.00" timeLoss="75.43" rerouteNo="0" devices="tripinfo_45" vType="DEFAULT_VEHTYPE" speedFactor="1.00" vaporized=""/>
    <tripinfo id="3" depart="1.00" departLane="-19_0" departPos="5.10" departSpeed="0.00" departDelay="1.00" arrival="153.00" arrivalLane="11_1" arrivalPos="159.85" arrivalSpeed="12.69" duration="152.00" routeLength="571.24" waitingTime="95.00" waitingCount="2" stopTime="0.00" timeLoss="110.10" rerouteNo="0" devices="tripinfo_3" vType="DEFAULT_VEHTYPE" speedFactor="1.00" vaporized=""/>
    <tripinfo id="124" depart="91.00" departLane="-19_0" departPos="5.10" departSpeed="0.00" departDelay="1.00" arrival="153.00" arrivalLane="11_2" arrivalPos="159.85" arrivalSpeed="12.70" duration="62.00" routeLength="571.24" waitingTime="3.00" waitingCount="2" stopTime="0.00" timeLoss="20.48" rerouteNo="0" devices="tripinfo_124" vType="DEFAULT_VEHTYPE" speedFactor="1.00" vaporized=""/>
    <tripinfo id="2" depart="0.00" departLane="-19_0" departPos="5.10" departSpeed="0.00" departDelay="0.00" arrival="153.00" arrivalLane="68_1" arrivalPos="184.71" arrivalSpeed="13.05" duration="153.00" routeLength="607.79" waitingTime="88.00" waitingCount="1" stopTime="0.00" timeLoss="108.42" rerouteNo="0" devices="tripinfo_2" vType="DEFAULT_VEHTYPE" speedFactor="1.00" vaporized=""/>
    <tripinfo id="88" depart="71.00" departLane="-7_0" departPos="5.10" departSpeed="0.00" departDelay="6.00" arrival="153.00" arrivalLane="68_0" arrivalPos="184.71" arrivalSpeed="13.42" duration="82.00" routeLength="774.44" waitingTime="8.00" waitingCount="1" stopTime="0.00" timeLoss="25.74" rerouteNo="0" devices="tripinfo_88" vType="DEFAULT_VEHTYPE" speedFactor="1.00" vaporized=""/>
    <tripinfo id="125" depart="92.00" departLane="-25_0" departPos="5.10" departSpeed="0.00" departDelay="0.00" arrival="154.00" arrivalLane="19_4" arrivalPos="180.70" arrivalSpeed="13.54" duration="62.00" routeLength="399.66" waitingTime="22.00" waitingCount="1" stopTime="0.00" timeLoss="33.19" rerouteNo="0" devices="tripinfo_125" vType="DEFAULT_VEHTYPE" speedFactor="1.00" vaporized=""/>
    <tripinfo id="43" depart="33.00" departLane="-19_0" departPos="5.10" departSpeed="0.00" departDelay="2.00" arrival="154.00" arrivalLane="68_1" arrivalPos="184.71" arrivalSpeed="13.45" duration="121.00" routeLength="607.79" waitingTime="58.00" waitingCount="2" stopTime="0.00" timeLoss="77.12" rerouteNo="0" devices="tripinfo_43" vType="DEFAULT_VEHTYPE" speedFactor="1.00" vaporized=""/>
    <tripinfo id="64" depart="44.00" departLane="-19_0" departPos="5.10" departSpeed="0.00" departDelay="0.00" arrival="155.00" arrivalLane="11_1" arrivalPos="159.85" arrivalSpeed="13.33" duration="111.00" routeLength="571.24" waitingTime="52.00" waitingCount="2" stopTime="0.00" timeLoss="69.00" rerouteNo="0" devices="tripinfo_64" vType="DEFAULT_VEHTYPE" speedFactor="1.00" vaporized=""/>