<?xml version="1.0" encoding="UTF-8"?>

<!-- generated on 06/21/18 21:48:03 by Eclipse SUMO GUI Version v0_32_0+1428-4ab3f27cbd
<configuration xmlns:xsi="http://www.w3.org/2001/XMLSchema-instance" xsi:noNamespaceSchemaLocation="http://sumo.dlr.de/xsd/sumoConfiguration.xsd">

    <input>
        <net-file value="./city/city.net.xml"/>
        <route-files value="./city/routes.rou.alt.xml"/>
        <additional-files value="./city/e2.add.xml"/>
    </input>

    <output>
        <tripinfo-output value="./city/city_tripinfo-output_MixedScheduler.xml"/>
    </output>

    <traci_server>
        <remote-port value="51771"/>
    </traci_server>

</configuration>
-->

<tripinfos xmlns:xsi="http://www.w3.org/2001/XMLSchema-instance" xsi:noNamespaceSchemaLocation="http://sumo.dlr.de/xsd/tripinfo_file.xsd">
    <tripinfo id="3" depart="1.00" departLane="-686_0" departPos="5.10" departSpeed="0.00" departDelay="0.00" arrival="27.00" arrivalLane="684_1" arrivalPos="157.05" arrivalSpeed="12.92" duration="26.00" routeLength="309.08" waitingTime="0.00" waitingCount="0" stopTime="0.00" timeLoss="3.48" rerouteNo="0" devices="tripinfo_3" vType="DEFAULT_VEHTYPE" speedFactor="1.00" vaporized=""/>
    <tripinfo id="25" depart="16.00" departLane="-686_0" departPos="5.10" departSpeed="0.00" departDelay="0.00" arrival="43.00" arrivalLane="704_0" arrivalPos="174.34" arrivalSpeed="12.87" duration="27.00" routeLength="311.25" waitingTime="0.00" waitingCount="0" stopTime="0.00" timeLoss="3.71" rerouteNo="0" devices="tripinfo_25" vType="DEFAULT_VEHTYPE" speedFactor="1.00" vaporized=""/>
    <tripinfo id="20" depart="12.00" departLane="-405_0" departPos="5.10" departSpeed="0.00" departDelay="0.00" arrival="48.00" arrivalLane="904_0" arrivalPos="201.83" arrivalSpeed="12.77" duration="36.00" routeLength="436.32" waitingTime="0.00" waitingCount="0" stopTime="0.00" timeLoss="4.26" rerouteNo="0" devices="tripinfo_20" vType="DEFAULT_VEHTYPE" speedFactor="1.00" vaporized=""/>
    <tripinfo id="30" depart="19.00" departLane="-900_0" departPos="5.10" departSpeed="0.00" departDelay="0.00" arrival="52.00" arrivalLane="852_0" arrivalPos="147.75" arrivalSpeed="13.33" duration="33.00" routeLength="382.60" waitingTime="0.00" waitingCount="0" stopTime="0.00" timeLoss="5.20" rerouteNo="0" devices="tripinfo_30" vType="DEFAULT_VEHTYPE" speedFactor="1.00" vaporized=""/>
    <tripinfo id="18" depart="12.00" departLane="-712_0" departPos="5.10" departSpeed="0.00" departDelay="0.00" arrival="57.00" arrivalLane="405_0" arrivalPos="97.20" arrivalSpeed="13.46" duration="45.00" routeLength="535.05" waitingTime="0.00" waitingCount="0" stopTime="0.00" timeLoss="5.63" rerouteNo="0" devices="tripinfo_18" vType="DEFAULT_VEHTYPE" speedFactor="1.00" vaporized=""/>
    <tripinfo id="2" depart="0.00" departLane="-393_0" departPos="5.10" departSpeed="0.00" departDelay="0.00" arrival="58.00" arrivalLane="904_0" arrivalPos="201.83" arrivalSpeed="13.69" duration="58.00" routeLength="718.05" waitingTime="0.00" waitingCount="0" stopTime="0.00" timeLoss="5.41" rerouteNo="0" devices="tripinfo_2" vType="DEFAULT_VEHTYPE" speedFactor="1.00" vaporized=""/>
    <tripinfo id="56" depart="40.00" departLane="-688_0" departPos="5.10" departSpeed="0.00" departDelay="0.00" arrival="78.00" arrivalLane="684_0" arrivalPos="157.05" arrivalSpeed="13.24" duration="38.00" routeLength="346.21" waitingTime="3.00" waitingCount="1" stopTime="0.00" timeLoss="12.32" rerouteNo="0" devices="tripinfo_56" vType="DEFAULT_VEHTYPE" speedFactor="1.00" vaporized=""/>
    <tripinfo id="13" depart="8.00" departLane="-852_0" departPos="5.10" departSpeed="0.00" departDelay="0.00" arrival="80.00" arrivalLane="343_0" arrivalPos="162.53" arrivalSpeed="12.99" duration="72.00" routeLength="694.19" waitingTime="9.00" waitingCount="1" stopTime="0.00" timeLoss="21.25" rerouteNo="0" devices="tripinfo_13" vType="DEFAULT_VEHTYPE" speedFactor="1.00" vaporized=""/>
    <tripinfo id="60" depart="41.00" departLane="-704_0" departPos="5.10" departSpeed="0.00" departDelay="0.00" arrival="87.00" arrivalLane="698_0" arrivalPos="233.81" arrivalSpeed="13.65" duration="46.00" routeLength="418.79" waitingTime="4.00" waitingCount="2" stopTime="0.00" timeLoss="15.59" rerouteNo="0" devices="tripinfo_60" vType="DEFAULT_VEHTYPE" speedFactor="1.00" vaporized=""/>
    <tripinfo id="36" depart="21.00" departLane="-712_0" departPos="5.10" departSpeed="0.00" departDelay="0.00" arrival="89.00" arrivalLane="716_0" arrivalPos="180.43" arrivalSpeed="13.34" duration="68.00" routeLength="384.97" waitingTime="28.00" waitingCount="1" stopTime="0.00" timeLoss="39.37" rerouteNo="0" devices="tripinfo_36" vType="DEFAULT_VEHTYPE" speedFactor="1.00" vaporized=""/>
    <tripinfo id="15" depart="11.00" departLane="-343_0" departPos="5.10" departSpeed="0.00" departDelay="0.00" arrival="93.00" arrivalLane="852_0" arrivalPos="147.75" arrivalSpeed="13.58" duration="82.00" routeLength="692.23" waitingTime="20.00" waitingCount="2" stopTime="0.00" timeLoss="31.76" rerouteNo="0" devices="tripinfo_15" vType="DEFAULT_VEHTYPE" speedFactor="1.00" vaporized=""/>
    <tripinfo id="69" depart="46.00" departLane="-712_0" departPos="5.10" departSpeed="0.00" departDelay="0.00" arrival="95.00" arrivalLane="716_0" arrivalPos="180.43" arrivalSpeed="13.64" duration="49.00" routeLength="384.97" waitingTime="9.00" waitingCount="1" stopTime="0.00" timeLoss="20.35" rerouteNo="0" devices="tripinfo_69" vType="DEFAULT_VEHTYPE" speedFactor="1.00" vaporized=""/>
    <tripinfo id="45" depart="32.00" departLane="-716_0" departPos="5.10" departSpeed="0.00" departDelay="0.00" arrival="99.00" arrivalLane="900_0" arrivalPos="221.08" arrivalSpeed="13.75" duration="67.00" routeLength="782.74" waitingTime="0.00" waitingCount="0" stopTime="0.00" timeLoss="10.62" rerouteNo="0" devices="tripinfo_45" vType="DEFAULT_VEHTYPE" speedFactor="1.00" vaporized=""/>
    <tripinfo id="16" depart="11.00" departLane="-716_0" departPos="5.10" departSpeed="0.00" departDelay="0.00" arrival="102.00" arrivalLane="477_0" arrivalPos="111.28" arrivalSpeed="12.97" duration="91.00" routeLength="648.69" waitingTime="27.00" waitingCount="2" stopTime="0.00" timeLoss="44.18" rerouteNo="0" devices="tripinfo_16" vType="DEFAULT_VEHTYPE" speedFactor="1.00" vaporized=""/>
    <tripinfo id="98" depart="67.00" departLane="-686_0" departPos="5.10" departSpeed="0.00" departDelay="0.00" arrival="102.00" arrivalLane="698_1" arrivalPos="233.81" arrivalSpeed="12.99" duration="35.00" routeLength="384.84" waitingTime="0.00" waitingCount="0" stopTime="0.00" timeLoss="6.96" rerouteNo="0" devices="tripinfo_98" vType="DEFAULT_VEHTYPE" speedFactor="1.00" vaporized=""/>
    <tripinfo id="54" depart="39.00" departLane="-734_0" departPos="5.10" departSpeed="0.00" departDelay="0.00" arrival="104.00" arrivalLane="477_0" arrivalPos="111.28" arrivalSpeed="13.63" duration="65.00" routeLength="647.91" waitingTime="4.00" waitingCount="2" stopTime="0.00" timeLoss="17.94" rerouteNo="0" devices="tripinfo_54" vType="DEFAULT_VEHTYPE" speedFactor="1.00" vaporized=""/>
    <tripinfo id="35" depart="21.00" departLane="-852_0" departPos="5.10" departSpeed="0.00" departDelay="0.00" arrival="104.00" arrivalLane="904_0" arrivalPos="201.83" arrivalSpeed="13.69" duration="83.00" routeLength="626.18" waitingTime="19.00" waitingCount="3" stopTime="0.00" timeLoss="37.75" rerouteNo="0" devices="tripinfo_35" vType="DEFAULT_VEHTYPE" speedFactor="1.00" vaporized=""/>
    <tripinfo id="92" depart="62.00" departLane="-698_0" departPos="5.10" departSpeed="0.00" departDelay="0.00" arrival="105.00" arrivalLane="686_0" arrivalPos="134.26" arrivalSpeed="13.37" duration="43.00" routeLength="386.41" waitingTime="3.00" waitingCount="1" stopTime="0.00" timeLoss="14.62" rerouteNo="0" devices="tripinfo_92" vType="DEFAULT_VEHTYPE" speedFactor="1.00" vaporized=""/>
    <tripinfo id="28" depart="21.00" departLane="-343_0" departPos="5.10" departSpeed="0.00" departDelay="2.00" arrival="106.00" arrivalLane="175_0" arrivalPos="193.90" arrivalSpeed="12.69" duration="85.00" routeLength="945.04" waitingTime="2.00" waitingCount="1" stopTime="0.00" timeLoss="16.96" rerouteNo="0" devices="tripinfo_28" vType="DEFAULT_VEHTYPE" speedFactor="1.00" vaporized=""/>
    <tripinfo id="37" depart="24.00" departLane="-852_0" departPos="5.10" departSpeed="0.00" departDelay="2.00" arrival="106.00" arrivalLane="904_0" arrivalPos="201.83" arrivalSpeed="12.67" duration="82.00" routeLength="626.18" waitingTime="16.00" waitingCount="2" stopTime="0.00" timeLoss="36.90" rerouteNo="0" devices="tripinfo_37" vType="DEFAULT_VEHTYPE" speedFactor="1.00" vaporized=""/>
    <tripinfo id="19" depart="12.00" departLane="-900_0" departPos="5.10" departSpeed="0.00" departDelay="0.00" arrival="108.00" arrivalLane="343_0" arrivalPos="162.53" arrivalSpeed="13.14" duration="96.00" routeLength="766.06" waitingTime="18.00" waitingCount="2" stopTime="0.00" timeLoss="40.11" rerouteNo="0" devices="tripinfo_19" vType="DEFAULT_VEHTYPE" speedFactor="1.00" vaporized=""/>
    <tripinfo id="124" depart="79.00" departLane="-712_0" departPos="5.10" departSpeed="0.00" departDelay="0.00" arrival="112.00" arrivalLane="716_0" arrivalPos="180.43" arrivalSpeed="13.10" duration="33.00" routeLength="384.97" waitingTime="0.00" waitingCount="0" stopTime="0.00" timeLoss="4.99" rerouteNo="0" devices="tripinfo_124" vType="DEFAULT_VEHTYPE" speedFactor="1.00" vaporized=""/>
    <tripinfo id="65" depart="44.00" departLane="-688_0" departPos="5.10" departSpeed="0.00" departDelay="0.00" arrival="113.00" arrivalLane="175_1" arrivalPos="193.90" arrivalSpeed="13.23" duration="69.00" routeLength="740.27" waitingTime="1.00" waitingCount="1" stopTime="0.00" timeLoss="15.18" rerouteNo="0" devices="tripinfo_65" vType="DEFAULT_VEHTYPE" speedFactor="1.00" vaporized=""/>
    <tripinfo id="129" depart="82.00" departLane="-712_0" departPos="5.10" departSpeed="0.00" departDelay="2.00" arrival="116.00" arrivalLane="734_0" arrivalPos="177.74" arrivalSpeed="13.60" duration="34.00" routeLength="376.71" waitingTime="0.00" waitingCount="0" stopTime="0.00" timeLoss="5.95" rerouteNo="0" devices="tripinfo_129" vType="DEFAULT_VEHTYPE" speedFactor="1.00" vaporized=""/>
    <tripinfo id="134" depart="84.00" departLane="-704_0" departPos="5.10" departSpeed="0.00" departDelay="2.00" arrival="123.00" arrivalLane="684_1" arrivalPos="157.05" arrivalSpeed="13.16" duration="39.00" routeLength="348.43" waitingTime="2.00" waitingCount="1" stopTime="0.00" timeLoss="13.20" rerouteNo="0" devices="tripinfo_134" vType="DEFAULT_VEHTYPE" speedFactor="1.00" vaporized=""/>
    <tripinfo id="84" depart="56.00" departLane="-900_0" departPos="5.10" departSpeed="0.00" departDelay="0.00" arrival="125.00" arrivalLane="904_0" arrivalPos="201.83" arrivalSpeed="13.63" duration="69.00" routeLength="698.05" waitingTime="5.00" waitingCount="1" stopTime="0.00" timeLoss="18.03" rerouteNo="0" devices="tripinfo_84" vType="DEFAULT_VEHTYPE" speedFactor="1.00" vaporized=""/>
    <tripinfo id="9" depart="7.00" departLane="-686_0" departPos="5.10" departSpeed="0.00" departDelay="2.00" arrival="125.00" arrivalLane="686_0" arrivalPos="134.26" arrivalSpeed="13.67" duration="118.00" routeLength="1091.00" waitingTime="17.00" waitingCount="2" stopTime="0.00" timeLoss="38.83" rerouteNo="0" devices="tripinfo_9" vType="DEFAULT_VEHTYPE" speedFactor="1.00" vaporized=""/>
    <tripinfo id="11" depart="8.00" departLane="-175_0" departPos="5.10" departSpeed="0.00" departDelay="0.00" arrival="128.00" arrivalLane="393_0" arrivalPos="125.65" arrivalSpeed="13.16" duration="120.00" routeLength="907.78" waitingTime="38.00" waitingCount="2" stopTime="0.00" timeLoss="54.61" rerouteNo="0" devices="tripinfo_11" vType="DEFAULT_VEHTYPE" speedFactor="1.00" vaporized=""/>
    <tripinfo id="66" depart="48.00" departLane="-734_0" departPos="5.10" departSpeed="0.00" departDelay="2.00" arrival="134.00" arrivalLane="852_0" arrivalPos="147.75" arrivalSpeed="13.26" duration="86.00" routeLength="703.78" waitingTime="14.00" waitingCount="3" stopTime="0.00" timeLoss="34.67" rerouteNo="0" devices="tripinfo_66" vType="DEFAULT_VEHTYPE" speedFactor="1.00" vaporized=""/>
    <tripinfo id="105" depart="72.00" departLane="-844_0" departPos="5.10" departSpeed="0.00" departDelay="3.00" arrival="135.00" arrivalLane="904_0" arrivalPos="201.83" arrivalSpeed="12.79" duration="63.00" routeLength="670.66" waitingTime="0.00" waitingCount="0" stopTime="0.00" timeLoss="14.71" rerouteNo="0" devices="tripinfo_105" vType="DEFAULT_VEHTYPE" speedFactor="1.00" vaporized=""/>
    <tripinfo id="38" depart="25.00" departLane="-844_0" departPos="5.10" departSpeed="0.00" departDelay="3.00" arrival="137.00" arrivalLane="435_1" arrivalPos="236.48" arrivalSpeed="13.09" duration="112.00" routeLength="997.89" waitingTime="13.00" waitingCount="2" stopTime="0.00" timeLoss="39.35" rerouteNo="0" devices="tripinfo_38" vType="DEFAULT_VEHTYPE" speedFactor="1.00" vaporized=""/>
    <tripinfo id="1" depart="0.00" departLane="-405_0" departPos="5.10" departSpeed="0.00" departDelay="0.00" arrival="139.00" arrivalLane="688_0" arrivalPos="174.96" arrivalSpeed="13.51" duration="139.00" routeLength="1461.88" waitingTime="11.00" waitingCount="1" stopTime="0.00" timeLoss="33.57" rerouteNo="0" devices="tripinfo_1" vType="DEFAULT_VEHTYPE" speedFactor="1.00" vaporized=""/>
    <tripinfo id="95" depart="66.00" departLane="-712_0" departPos="5.10" departSpeed="0.00" departDelay="0.00" arrival="140.00" arrivalLane="844_1" arrivalPos="190.71" arrivalSpeed="12.99" duration="74.00" routeLength="766.12" waitingTime="4.00" waitingCount="2" stopTime="0.00" timeLoss="18.61" rerouteNo="0" devices="tripinfo_95" vType="DEFAULT_VEHTYPE" speedFactor="1.00" vaporized=""/>
    <tripinfo id="42" depart="30.00" departLane="-712_0" departPos="5.10" departSpeed="0.00" departDelay="0.00" arrival="140.00" arrivalLane="900_0" arrivalPos="221.08" arrivalSpeed="13.65" duration="110.00" routeLength="792.04" waitingTime="32.00" waitingCount="3" stopTime="0.00" timeLoss="52.90" rerouteNo="0" devices="tripinfo_42" vType="DEFAULT_VEHTYPE" speedFactor="1.00" vaporized=""/>
    <tripinfo id="170" depart="113.00" departLane="-686_0" departPos="5.10" departSpeed="0.00" departDelay="0.00" arrival="140.00" arrivalLane="704_0" arrivalPos="174.34" arrivalSpeed="13.03" duration="27.00" routeLength="311.25" waitingTime="0.00" waitingCount="0" stopTime="0.00" timeLoss="4.42" rerouteNo="0" devices="tripinfo_170" vType="DEFAULT_VEHTYPE" speedFactor="1.00" vaporized=""/>
    <tripinfo id="64" depart="44.00" departLane="-900_0" departPos="5.10" departSpeed="0.00" departDelay="0.00" arrival="142.00" arrivalLane="393_0" arrivalPos="125.65" arrivalSpeed="13.76" duration="98.00" routeLength="736.74" waitingTime="17.00" waitingCount="3" stopTime="0.00" timeLoss="44.89" rerouteNo="0" devices="tripinfo_64" vType="DEFAULT_VEHTYPE" speedFactor="1.00" vaporized=""/>
    <tripinfo id="107" depart="71.00" departLane="-712_0" departPos="5.10" departSpeed="0.00" departDelay="0.00" arrival="144.00" arrivalLane="844_1" arrivalPos="190.71" arrivalSpeed="12.75" duration="73.00" routeLength="766.12" waitingTime="1.00" waitingCount="1" stopTime="0.00" timeLoss="17.35" rerouteNo="0" devices="tripinfo_107" vType="DEFAULT_VEHTYPE" speedFactor="1.00" vaporized=""/>
    <tripinfo id="74" depart="50.00" departLane="-684_0" departPos="5.10" departSpeed="0.00" departDelay="0.00" arrival="145.00" arrivalLane="686_0" arrivalPos="134.26" arrivalSpeed="12.97" duration="95.00" routeLength="307.06" waitingTime="63.00" waitingCount="1" stopTime="0.00" timeLoss="72.53" rerouteNo="0" devices="tripinfo_74" vType="DEFAULT_VEHTYPE" speedFactor="1.00" vaporized=""/>
    <tripinfo id="119" depart="79.00" departLane="-684_0" departPos="5.10" departSpeed="0.00" departDelay="2.00" arrival="149.00" arrivalLane="688_0" arrivalPos="174.96" arrivalSpeed="13.81" duration="70.00" routeLength="353.37" waitingTime="33.00" waitingCount="1" stopTime="0.00" timeLoss="44.00" rerouteNo="0" devices="tripinfo_119" vType="DEFAULT_VEHTYPE" speedFactor="1.00" vaporized=""/>
    <tripinfo id="187" depart="123.00" departLane="-684_0" departPos="5.10" departSpeed="0.00" departDelay="0.00" arrival="152.00" arrivalLane="704_0" arrivalPos="174.34" arrivalSpeed="13.25" duration="29.00" routeLength="350.40" waitingTime="0.00" waitingCount="0" stopTime="0.00" timeLoss="3.73" rerouteNo="0" devices="tripinfo_187" vType="DEFAULT_VEHTYPE" speedFactor="1.00" vaporized=""/>
    <tripinfo id="43" depart="30.00" departLane="-477_0" departPos="5.10" departSpeed="0.00" departDelay="0.00" arrival="155.00" arrivalLane="686_0" arrivalPos="134.26" arrivalSpeed="13.77" duration="125.00" routeLength="1366.29" waitingTime="8.00" waitingCount="2" stopTime="0.00" timeLoss="26.08" rerouteNo="0" devices="tripinfo_43" vType="DEFAULT_VEHTYPE" speedFactor="1.00" vaporized=""/>
    <tripinfo id="61" depart="44.00" departLane="-343_0" departPos="5.10" departSpeed="0.00" departDelay="2.00" arrival="156.00" arrivalLane="175_0" arrivalPos="193.90" arrivalSpeed="12.94" duration="112.00" routeLength="945.04" waitingTime="17.00" waitingCount="3" stopTime="0.00" timeLoss="44.01" rerouteNo="0" devices="tripinfo_61" vType="DEFAULT_VEHTYPE" speedFactor="1.00" vaporized=""/>
    <tripinfo id="85" depart="59.00" departLane="-844_0" departPos="5.10" departSpeed="0.00" departDelay="3.00" arrival="156.00" arrivalLane="343_0" arrivalPos="162.53" arrivalSpeed="12.61" duration="97.00" routeLength="738.67" waitingTime="13.00" waitingCount="2" stopTime="0.00" timeLoss="43.06" rerouteNo="0" devices="tripinfo_85" vType="DEFAULT_VEHTYPE" speedFactor="1.00" vaporized=""/>
    <tripinfo id="22" depart="15.00" departLane="-900_0" departPos="5.10" departSpeed="0.00" departDelay="0.00" arrival="158.00" arrivalLane="175_0" arrivalPos="193.90" arrivalSpeed="13.35" duration="143.00" routeLength="1368.48" waitingTime="16.00" waitingCount="1" stopTime="0.00" timeLoss="44.47" rerouteNo="0" devices="tripinfo_22" vType="DEFAULT_VEHTYPE" speedFactor="1.00" vaporized=""/>
    <tripinfo id="192" depart="127.00" departLane="-734_0" departPos="5.10" departSpeed="0.00" departDelay="0.00" arrival="159.00" arrivalLane="716_0" arrivalPos="180.43" arrivalSpeed="12.78" duration="32.00" routeLength="372.08" waitingTime="0.00" waitingCount="0" stopTime="0.00" timeLoss="4.60" rerouteNo="0" devices="tripinfo_192" vType="DEFAULT_VEHTYPE" speedFactor="1.00" vaporized=""/>
    <tripinfo id="62" depart="42.00" departLane="-175_0" departPos="5.10" departSpeed="0.00" departDelay="0.00" arrival="161.00" arrivalLane="393_0" arrivalPos="125.65" arrivalSpeed="13.59" duration="119.00" routeLength="907.78" waitingTime="36.00" waitingCount="2" stopTime="0.00" timeLoss="52.92" rerouteNo="0" devices="tripinfo_62" vType="DEFAULT_VEHTYPE" speedFactor="1.00" vaporized=""/>
    <tripinfo id="172" depart="116.00" departLane="-852_0" departPos="5.10" departSpeed="0.00" departDelay="3.00" arrival="162.00" arrivalLane="900_0" arrivalPos="221.08" arrivalSpeed="13.34" duration="46.00" routeLength="386.95" waitingTime="5.00" waitingCount="1" stopTime="0.00" timeLoss="17.25" rerouteNo="0" devices="tripinfo_172" vType="DEFAULT_VEHTYPE" speedFactor="1.00" vaporized=""/>
    <tripinfo id="5" depart="4.00" departLane="-686_0" departPos="5.10" departSpeed="0.00" departDelay="1.00" arrival="163.00" arrivalLane="393_0" arrivalPos="125.65" arrivalSpeed="13.79" duration="159.00" routeLength="1200.40" waitingTime="45.00" waitingCount="3" stopTime="0.00" timeLoss="72.06" rerouteNo="0" devices="tripinfo_5" vType="DEFAULT_VEHTYPE" speedFactor="1.00" vaporized=""/>
    <tripinfo id="33" depart="20.00" departLane="-734_0" departPos="5.10" departSpeed="0.00" departDelay="0.00" arrival="165.00" arrivalLane="175_0" arrivalPos="193.90" arrivalSpeed="13.59" duration="145.00" routeLength="1425.76" waitingTime="17.00" waitingCount="3" stopTime="0.00" timeLoss="42.21" rerouteNo="0" devices="tripinfo_33" vType="DEFAULT_VEHTYPE" speedFactor="1.00" vaporized=""/>
    <tripinfo id="103" depart="69.00" departLane="-844_0" departPos="5.10" departSpeed="0.00" departDelay="1.00" arrival="166.00" arrivalLane="477_0" arrivalPos="111.28" arrivalSpeed="12.70" duration="97.00" routeLength="855.62" waitingTime="5.00" waitingCount="1" stopTime="0.00" timeLoss="35.45" rerouteNo="0" devices="tripinfo_103" vType="DEFAULT_VEHTYPE" speedFactor="1.00" vaporized=""/>
    <tripinfo id="195" depart="129.00" departLane="-688_0" departPos="5.10" departSpeed="0.00" departDelay="0.00" arrival="171.00" arrivalLane="686_0" arrivalPos="134.26" arrivalSpeed="12.93" duration="42.00" routeLength="324.76" waitingTime="7.00" waitingCount="1" stopTime="0.00" timeLoss="18.07" rerouteNo="0" devices="tripinfo_195" vType="DEFAULT_VEHTYPE" speedFactor="1.00" vaporized=""/>
    <tripinfo id="199" depart="133.00" departLane="-688_0" departPos="5.10" departSpeed="0.00" departDelay="0.00" arrival="176.00" arrivalLane="704_0" arrivalPos="174.34" arrivalSpeed="12.88" duration="43.00" routeLength="363.07" waitingTime="5.00" waitingCount="1" stopTime="0.00" timeLoss="16.32" rerouteNo="0" devices="tripinfo_199" vType="DEFAULT_VEHTYPE" speedFactor="1.00" vaporized=""/>
    <tripinfo id="17" depart="12.00" departLane="-688_0" departPos="5.10" departSpeed="0.00" departDelay="0.00" arrival="178.00" arrivalLane="477_0" arrivalPos="111.28" arrivalSpeed="12.96" duration="166.00" routeLength="1403.70" waitingTime="26.00" waitingCount="3" stopTime="0.00" timeLoss="64.92" rerouteNo="0" devices="tripinfo_17" vType="DEFAULT_VEHTYPE" speedFactor="1.00" vaporized=""/>
    <tripinfo id="67" depart="46.00" departLane="-435_0" departPos="5.10" departSpeed="0.00" departDelay="0.00" arrival="184.00" arrivalLane="716_0" arrivalPos="180.43" arrivalSpeed="13.46" duration="138.00" routeLength="758.01" waitingTime="67.00" waitingCount="1" stopTime="0.00" timeLoss="83.23" rerouteNo="0" devices="tripinfo_67" vType="DEFAULT_VEHTYPE" speedFactor="1.00" vaporized=""/>
    <tripinfo id="120" depart="81.00" departLane="-716_0" departPos="5.10" departSpeed="0.00" departDelay="4.00" arrival="186.00" arrivalLane="904_0" arrivalPos="201.83" arrivalSpeed="13.76" duration="105.00" routeLength="752.02" waitingTime="30.00" waitingCount="2" stopTime="0.00" timeLoss="50.46" rerouteNo="0" devices="tripinfo_120" vType="DEFAULT_VEHTYPE" speedFactor="1.00" vaporized=""/>
    <tripinfo id="122" depart="80.00" departLane="-844_0" departPos="5.10" departSpeed="0.00" departDelay="3.00" arrival="187.00" arrivalLane="393_0" arrivalPos="125.65" arrivalSpeed="13.52" duration="107.00" routeLength="709.35" waitingTime="26.00" waitingCount="2" stopTime="0.00" timeLoss="55.26" rerouteNo="0" devices="tripinfo_122" vType="DEFAULT_VEHTYPE" speedFactor="1.00" vaporized=""/>
    <tripinfo id="93" depart="62.00" departLane="-477_0" departPos="5.10" departSpeed="0.00" departDelay="0.00" arrival="187.00" arrivalLane="734_0" arrivalPos="177.74" arrivalSpeed="13.00" duration="125.00" routeLength="660.10" waitingTime="60.00" waitingCount="2" stopTime="0.00" timeLoss="77.16" rerouteNo="0" devices="tripinfo_93" vType="DEFAULT_VEHTYPE" speedFactor="1.00" vaporized=""/>
    <tripinfo id="10" depart="10.00" departLane="-686_0" departPos="5.10" departSpeed="0.00" departDelay="3.00" arrival="188.00" arrivalLane="435_1" arrivalPos="236.48" arrivalSpeed="12.73" duration="178.00" routeLength="1497.56" waitingTime="39.00" waitingCount="3" stopTime="0.00" timeLoss="69.98" rerouteNo="0" devices="tripinfo_10" vType="DEFAULT_VEHTYPE" speedFactor="1.00" vaporized=""/>
    <tripinfo id="125" depart="80.00" departLane="-900_0" departPos="5.10" departSpeed="0.00" departDelay="1.00" arrival="188.00" arrivalLane="405_0" arrivalPos="97.20" arrivalSpeed="13.69" duration="108.00" routeLength="462.63" waitingTime="48.00" waitingCount="3" stopTime="0.00" timeLoss="74.26" rerouteNo="0" devices="tripinfo_125" vType="DEFAULT_VEHTYPE" speedFactor="1.00" vaporized=""/>
    <tripinfo id="110" depart="72.00" departLane="-477_0" departPos="5.10" departSpeed="0.00" departDelay="0.00" arrival="189.00" arrivalLane="734_0" arrivalPos="177.74" arrivalSpeed="13.16" duration="117.00" routeLength="660.10" waitingTime="55.00" waitingCount="1" stopTime="0.00" timeLoss="69.14" rerouteNo="0" devices="tripinfo_110" vType="DEFAULT_VEHTYPE" speedFactor="1.00" vaporized=""/>
    <tripinfo id="24" depart="16.00" departLane="-435_0" departPos="5.10" departSpeed="0.00" departDelay="0.00" arrival="191.00" arrivalLane="904_0" arrivalPos="201.83" arrivalSpeed="12.87" duration="175.00" routeLength="996.75" waitingTime="87.00" waitingCount="1" stopTime="0.00" timeLoss="103.20" rerouteNo="0" devices="tripinfo_24" vType="DEFAULT_VEHTYPE" speedFactor="1.00" vaporized=""/>
    <tripinfo id="169" depart="111.00" departLane="-435_0" departPos="5.10" departSpeed="0.00" departDelay="0.00" arrival="192.00" arrivalLane="712_0" arrivalPos="195.35" arrivalSpeed="13.17" duration="81.00" routeLength="778.74" waitingTime="8.00" waitingCount="2" stopTime="0.00" timeLoss="24.09" rerouteNo="0" devices="tripinfo_169" vType="DEFAULT_VEHTYPE" speedFactor="1.00" vaporized=""/>
    <tripinfo id="7" depart="3.00" departLane="-698_0" departPos="5.10" departSpeed="0.00" departDelay="0.00" arrival="193.00" arrivalLane="435_1" arrivalPos="236.48" arrivalSpeed="13.10" duration="190.00" routeLength="1603.79" waitingTime="39.00" waitingCount="3" stopTime="0.00" timeLoss="73.73" rerouteNo="0" devices="tripinfo_7" vType="DEFAULT_VEHTYPE" speedFactor="1.00" vaporized=""/>
    <tripinfo id="27" depart="18.00" departLane="-343_0" departPos="5.10" departSpeed="0.00" departDelay="0.00" arrival="193.00" arrivalLane="734_0" arrivalPos="177.74" arrivalSpeed="13.08" duration="175.00" routeLength="818.01" waitingTime="96.00" waitingCount="3" stopTime="0.00" timeLoss="115.27" rerouteNo="0" devices="tripinfo_27" vType="DEFAULT_VEHTYPE" speedFactor="1.00" vaporized=""/>
    <tripinfo id="79" depart="52.00" departLane="-686_0" departPos="5.10" departSpeed="0.00" departDelay="0.00" arrival="194.00" arrivalLane="686_0" arrivalPos="134.26" arrivalSpeed="13.20" duration="142.00" routeLength="1091.00" waitingTime="32.00" waitingCount="5" stopTime="0.00" timeLoss="62.61" rerouteNo="0" devices="tripinfo_79" vType="DEFAULT_VEHTYPE" speedFactor="1.00" vaporized=""/>
    <tripinfo id="59" depart="41.00" departLane="-343_0" departPos="5.10" departSpeed="0.00" departDelay="0.00" arrival="195.00" arrivalLane="904_0" arrivalPos="201.83" arrivalSpeed="13.15" duration="154.00" routeLength="738.57" waitingTime="77.00" waitingCount="4" stopTime="0.00" timeLoss="100.48" rerouteNo="0" devices="tripinfo_59" vType="DEFAULT_VEHTYPE" speedFactor="1.00" vaporized=""/>
    <tripinfo id="154" depart="102.00" departLane="-175_0" departPos="5.10" departSpeed="0.00" departDelay="0.00" arrival="195.00" arrivalLane="704_0" arrivalPos="174.34" arrivalSpeed="12.84" duration="93.00" routeLength="716.82" waitingTime="27.00" waitingCount="2" stopTime="0.00" timeLoss="41.20" rerouteNo="0" devices="tripinfo_154" vType="DEFAULT_VEHTYPE" speedFactor="1.00" vaporized=""/>
    <tripinfo id="21" depart="13.00" departLane="-852_0" departPos="5.10" departSpeed="0.00" departDelay="0.00" arrival="197.00" arrivalLane="716_0" arrivalPos="180.43" arrivalSpeed="13.38" duration="184.00" routeLength="716.35" waitingTime="113.00" waitingCount="3" stopTime="0.00" timeLoss="131.69" rerouteNo="0" devices="tripinfo_21" vType="DEFAULT_VEHTYPE" speedFactor="1.00" vaporized=""/>
    <tripinfo id="39" depart="26.00" departLane="-393_0" departPos="5.10" departSpeed="0.00" departDelay="0.00" arrival="197.00" arrivalLane="712_0" arrivalPos="195.35" arrivalSpeed="13.82" duration="171.00" routeLength="814.17" waitingTime="85.00" waitingCount="3" stopTime="0.00" timeLoss="112.25" rerouteNo="0" devices="tripinfo_39" vType="DEFAULT_VEHTYPE" speedFactor="1.00" vaporized=""/>
    <tripinfo id="96" depart="66.00" departLane="-844_0" departPos="5.10" departSpeed="0.00" departDelay="0.00" arrival="198.00" arrivalLane="734_0" arrivalPos="177.74" arrivalSpeed="13.50" duration="132.00" routeLength="757.77" waitingTime="51.00" waitingCount="3" stopTime="0.00" timeLoss="76.59" rerouteNo="0" devices="tripinfo_96" vType="DEFAULT_VEHTYPE" speedFactor="1.00" vaporized=""/>
    <tripinfo id="8" depart="4.00" departLane="-900_0" departPos="5.10" departSpeed="0.00" departDelay="0.00" arrival="199.00" arrivalLane="716_0" arrivalPos="180.43" arrivalSpeed="13.60" duration="195.00" routeLength="788.22" waitingTime="111.00" waitingCount="4" stopTime="0.00" timeLoss="137.68" rerouteNo="0" devices="tripinfo_8" vType="DEFAULT_VEHTYPE" speedFactor="1.00" vaporized=""/>
    <tripinfo id="151" depart="97.00" departLane="-686_0" departPos="5.10" departSpeed="0.00" departDelay="0.00" arrival="200.00" arrivalLane="175_1" arrivalPos="193.90" arrivalSpeed="13.09" duration="103.00" routeLength="691.86" waitingTime="34.00" waitingCount="2" stopTime="0.00" timeLoss="52.88" rerouteNo="0" devices="tripinfo_151" vType="DEFAULT_VEHTYPE" speedFactor="1.00" vaporized=""/>
    <tripinfo id="0" depart="0.00" departLane="-712_0" departPos="5.10" departSpeed="0.00" departDelay="0.00" arrival="201.00" arrivalLane="712_0" arrivalPos="195.35" arrivalSpeed="13.77" duration="201.00" routeLength="1383.74" waitingTime="82.00" waitingCount="1" stopTime="0.00" timeLoss="100.47" rerouteNo="0" devices="tripinfo_0" vType="DEFAULT_VEHTYPE" speedFactor="1.00" vaporized=""/>
    <tripinfo id="131" depart="81.00" departLane="-734_0" departPos="5.10" departSpeed="0.00" departDelay="0.00" arrival="203.00" arrivalLane="477_0" arrivalPos="111.28" arrivalSpeed="13.53" duration="122.00" routeLength="647.91" waitingTime="49.00" waitingCount="3" stopTime="0.00" timeLoss="74.53" rerouteNo="0" devices="tripinfo_131" vType="DEFAULT_VEHTYPE" speedFactor="1.00" vaporized=""/>