<?xml version="1.0" encoding="UTF-8"?>

<!-- generated on 06/21/18 21:45:43 by Eclipse SUMO GUI Version v0_32_0+1428-4ab3f27cbd
<configuration xmlns:xsi="http://www.w3.org/2001/XMLSchema-instance" xsi:noNamespaceSchemaLocation="http://sumo.dlr.de/xsd/sumoConfiguration.xsd">

    <input>
        <net-file value="./city/city.net.xml"/>
        <route-files value="./city/routes.rou.alt.xml"/>
        <additional-files value="./city/e2.add.xml"/>
    </input>

    <output>
        <tripinfo-output value="./city/city_tripinfo-output_StaticScheduler.xml"/>
    </output>

    <traci_server>
        <remote-port value="51758"/>
    </traci_server>

</configuration>
-->

<tripinfos xmlns:xsi="http://www.w3.org/2001/XMLSchema-instance" xsi:noNamespaceSchemaLocation="http://sumo.dlr.de/xsd/tripinfo_file.xsd">
    <tripinfo id="3" depart="1.00" departLane="-686_0" departPos="5.10" departSpeed="0.00" departDelay="0.00" arrival="46.00" arrivalLane="684_1" arrivalPos="157.05" arrivalSpeed="13.49" duration="45.00" routeLength="309.08" waitingTime="13.00" waitingCount="1" stopTime="0.00" timeLoss="22.59" rerouteNo="0" devices="tripinfo_3" vType="DEFAULT_VEHTYPE" speedFactor="1.00" vaporized=""/>
    <tripinfo id="36" depart="21.00" departLane="-712_0" departPos="5.10" departSpeed="0.00" departDelay="0.00" arrival="54.00" arrivalLane="716_0" arrivalPos="180.43" arrivalSpeed="13.06" duration="33.00" routeLength="384.97" waitingTime="0.00" waitingCount="0" stopTime="0.00" timeLoss="4.38" rerouteNo="0" devices="tripinfo_36" vType="DEFAULT_VEHTYPE" speedFactor="1.00" vaporized=""/>
    <tripinfo id="25" depart="16.00" departLane="-686_0" departPos="5.10" departSpeed="0.00" departDelay="0.00" arrival="54.00" arrivalLane="704_0" arrivalPos="174.34" arrivalSpeed="12.74" duration="38.00" routeLength="311.25" waitingTime="3.00" waitingCount="1" stopTime="0.00" timeLoss="15.41" rerouteNo="0" devices="tripinfo_25" vType="DEFAULT_VEHTYPE" speedFactor="1.00" vaporized=""/>
    <tripinfo id="20" depart="12.00" departLane="-405_0" departPos="5.10" departSpeed="0.00" departDelay="0.00" arrival="63.00" arrivalLane="904_0" arrivalPos="201.83" arrivalSpeed="13.49" duration="51.00" routeLength="436.32" waitingTime="9.00" waitingCount="1" stopTime="0.00" timeLoss="19.19" rerouteNo="0" devices="tripinfo_20" vType="DEFAULT_VEHTYPE" speedFactor="1.00" vaporized=""/>
    <tripinfo id="16" depart="11.00" departLane="-716_0" departPos="5.10" departSpeed="0.00" departDelay="0.00" arrival="82.00" arrivalLane="477_0" arrivalPos="111.28" arrivalSpeed="13.48" duration="71.00" routeLength="648.69" waitingTime="9.00" waitingCount="2" stopTime="0.00" timeLoss="24.09" rerouteNo="0" devices="tripinfo_16" vType="DEFAULT_VEHTYPE" speedFactor="1.00" vaporized=""/>
    <tripinfo id="56" depart="40.00" departLane="-688_0" departPos="5.10" departSpeed="0.00" departDelay="0.00" arrival="83.00" arrivalLane="684_0" arrivalPos="157.05" arrivalSpeed="13.21" duration="43.00" routeLength="346.21" waitingTime="7.00" waitingCount="1" stopTime="0.00" timeLoss="17.68" rerouteNo="0" devices="tripinfo_56" vType="DEFAULT_VEHTYPE" speedFactor="1.00" vaporized=""/>
    <tripinfo id="60" depart="41.00" departLane="-704_0" departPos="5.10" departSpeed="0.00" departDelay="0.00" arrival="94.00" arrivalLane="698_0" arrivalPos="233.81" arrivalSpeed="13.44" duration="53.00" routeLength="418.79" waitingTime="11.00" waitingCount="1" stopTime="0.00" timeLoss="22.37" rerouteNo="0" devices="tripinfo_60" vType="DEFAULT_VEHTYPE" speedFactor="1.00" vaporized=""/>
    <tripinfo id="18" depart="12.00" departLane="-712_0" departPos="5.10" departSpeed="0.00" departDelay="0.00" arrival="101.00" arrivalLane="405_0" arrivalPos="97.20" arrivalSpeed="13.51" duration="89.00" routeLength="535.05" waitingTime="34.00" waitingCount="2" stopTime="0.00" timeLoss="49.58" rerouteNo="0" devices="tripinfo_18" vType="DEFAULT_VEHTYPE" speedFactor="1.00" vaporized=""/>
    <tripinfo id="74" depart="50.00" departLane="-684_0" departPos="5.10" departSpeed="0.00" departDelay="0.00" arrival="104.00" arrivalLane="686_0" arrivalPos="134.26" arrivalSpeed="13.20" duration="54.00" routeLength="307.06" waitingTime="21.00" waitingCount="1" stopTime="0.00" timeLoss="31.38" rerouteNo="0" devices="tripinfo_74" vType="DEFAULT_VEHTYPE" speedFactor="1.00" vaporized=""/>
    <tripinfo id="15" depart="11.00" departLane="-343_0" departPos="5.10" departSpeed="0.00" departDelay="0.00" arrival="105.00" arrivalLane="852_0" arrivalPos="147.75" arrivalSpeed="13.01" duration="94.00" routeLength="692.23" waitingTime="20.00" waitingCount="3" stopTime="0.00" timeLoss="43.59" rerouteNo="0" devices="tripinfo_15" vType="DEFAULT_VEHTYPE" speedFactor="1.00" vaporized=""/>
    <tripinfo id="27" depart="18.00" departLane="-343_0" departPos="5.10" departSpeed="0.00" departDelay="0.00" arrival="106.00" arrivalLane="734_0" arrivalPos="177.74" arrivalSpeed="13.39" duration="88.00" routeLength="818.01" waitingTime="10.00" waitingCount="1" stopTime="0.00" timeLoss="29.00" rerouteNo="0" devices="tripinfo_27" vType="DEFAULT_VEHTYPE" speedFactor="1.00" vaporized=""/>
    <tripinfo id="119" depart="79.00" departLane="-684_0" departPos="5.10" departSpeed="0.00" departDelay="2.00" arrival="109.00" arrivalLane="688_0" arrivalPos="174.96" arrivalSpeed="13.15" duration="30.00" routeLength="353.37" waitingTime="0.00" waitingCount="0" stopTime="0.00" timeLoss="3.68" rerouteNo="0" devices="tripinfo_119" vType="DEFAULT_VEHTYPE" speedFactor="1.00" vaporized=""/>
    <tripinfo id="59" depart="41.00" departLane="-343_0" departPos="5.10" departSpeed="0.00" departDelay="0.00" arrival="110.00" arrivalLane="904_0" arrivalPos="201.83" arrivalSpeed="13.72" duration="69.00" routeLength="738.57" waitingTime="1.00" waitingCount="1" stopTime="0.00" timeLoss="15.74" rerouteNo="0" devices="tripinfo_59" vType="DEFAULT_VEHTYPE" speedFactor="1.00" vaporized=""/>
    <tripinfo id="2" depart="0.00" departLane="-393_0" departPos="5.10" departSpeed="0.00" departDelay="0.00" arrival="114.00" arrivalLane="904_0" arrivalPos="201.83" arrivalSpeed="13.71" duration="114.00" routeLength="718.05" waitingTime="49.00" waitingCount="1" stopTime="0.00" timeLoss="62.13" rerouteNo="0" devices="tripinfo_2" vType="DEFAULT_VEHTYPE" speedFactor="1.00" vaporized=""/>
    <tripinfo id="92" depart="62.00" departLane="-698_0" departPos="5.10" departSpeed="0.00" departDelay="0.00" arrival="119.00" arrivalLane="686_0" arrivalPos="134.26" arrivalSpeed="13.72" duration="57.00" routeLength="386.41" waitingTime="13.00" waitingCount="2" stopTime="0.00" timeLoss="28.56" rerouteNo="0" devices="tripinfo_92" vType="DEFAULT_VEHTYPE" speedFactor="1.00" vaporized=""/>
    <tripinfo id="42" depart="30.00" departLane="-712_0" departPos="5.10" departSpeed="0.00" departDelay="0.00" arrival="122.00" arrivalLane="900_0" arrivalPos="221.08" arrivalSpeed="13.23" duration="92.00" routeLength="792.04" waitingTime="23.00" waitingCount="1" stopTime="0.00" timeLoss="34.27" rerouteNo="0" devices="tripinfo_42" vType="DEFAULT_VEHTYPE" speedFactor="1.00" vaporized=""/>
    <tripinfo id="30" depart="19.00" departLane="-900_0" departPos="5.10" departSpeed="0.00" departDelay="0.00" arrival="123.00" arrivalLane="852_0" arrivalPos="147.75" arrivalSpeed="12.97" duration="104.00" routeLength="382.60" waitingTime="65.00" waitingCount="1" stopTime="0.00" timeLoss="75.73" rerouteNo="0" devices="tripinfo_30" vType="DEFAULT_VEHTYPE" speedFactor="1.00" vaporized=""/>
    <tripinfo id="45" depart="32.00" departLane="-716_0" departPos="5.10" departSpeed="0.00" departDelay="0.00" arrival="124.00" arrivalLane="900_0" arrivalPos="221.08" arrivalSpeed="12.70" duration="92.00" routeLength="782.74" waitingTime="17.00" waitingCount="2" stopTime="0.00" timeLoss="34.95" rerouteNo="0" devices="tripinfo_45" vType="DEFAULT_VEHTYPE" speedFactor="1.00" vaporized=""/>
    <tripinfo id="9" depart="7.00" departLane="-686_0" departPos="5.10" departSpeed="0.00" departDelay="2.00" arrival="125.00" arrivalLane="686_0" arrivalPos="134.26" arrivalSpeed="13.18" duration="118.00" routeLength="1091.00" waitingTime="10.00" waitingCount="2" stopTime="0.00" timeLoss="38.95" rerouteNo="0" devices="tripinfo_9" vType="DEFAULT_VEHTYPE" speedFactor="1.00" vaporized=""/>
    <tripinfo id="39" depart="26.00" departLane="-393_0" departPos="5.10" departSpeed="0.00" departDelay="0.00" arrival="131.00" arrivalLane="712_0" arrivalPos="195.35" arrivalSpeed="13.48" duration="105.00" routeLength="814.17" waitingTime="27.00" waitingCount="2" stopTime="0.00" timeLoss="46.28" rerouteNo="0" devices="tripinfo_39" vType="DEFAULT_VEHTYPE" speedFactor="1.00" vaporized=""/>
    <tripinfo id="28" depart="21.00" departLane="-343_0" departPos="5.10" departSpeed="0.00" departDelay="2.00" arrival="132.00" arrivalLane="175_0" arrivalPos="193.90" arrivalSpeed="13.53" duration="111.00" routeLength="945.04" waitingTime="21.00" waitingCount="2" stopTime="0.00" timeLoss="42.55" rerouteNo="0" devices="tripinfo_28" vType="DEFAULT_VEHTYPE" speedFactor="1.00" vaporized=""/>
    <tripinfo id="8" depart="4.00" departLane="-900_0" departPos="5.10" departSpeed="0.00" departDelay="0.00" arrival="132.00" arrivalLane="716_0" arrivalPos="180.43" arrivalSpeed="12.93" duration="128.00" routeLength="788.22" waitingTime="55.00" waitingCount="2" stopTime="0.00" timeLoss="70.74" rerouteNo="0" devices="tripinfo_8" vType="DEFAULT_VEHTYPE" speedFactor="1.00" vaporized=""/>
    <tripinfo id="35" depart="21.00" departLane="-852_0" departPos="5.10" departSpeed="0.00" departDelay="0.00" arrival="134.00" arrivalLane="904_0" arrivalPos="201.83" arrivalSpeed="13.77" duration="113.00" routeLength="626.18" waitingTime="42.00" waitingCount="3" stopTime="0.00" timeLoss="67.63" rerouteNo="0" devices="tripinfo_35" vType="DEFAULT_VEHTYPE" speedFactor="1.00" vaporized=""/>
    <tripinfo id="66" depart="48.00" departLane="-734_0" departPos="5.10" departSpeed="0.00" departDelay="2.00" arrival="137.00" arrivalLane="852_0" arrivalPos="147.75" arrivalSpeed="13.77" duration="89.00" routeLength="703.78" waitingTime="11.00" waitingCount="2" stopTime="0.00" timeLoss="38.19" rerouteNo="0" devices="tripinfo_66" vType="DEFAULT_VEHTYPE" speedFactor="1.00" vaporized=""/>
    <tripinfo id="69" depart="46.00" departLane="-712_0" departPos="5.10" departSpeed="0.00" departDelay="0.00" arrival="140.00" arrivalLane="716_0" arrivalPos="180.43" arrivalSpeed="13.31" duration="94.00" routeLength="384.97" waitingTime="57.00" waitingCount="1" stopTime="0.00" timeLoss="66.00" rerouteNo="0" devices="tripinfo_69" vType="DEFAULT_VEHTYPE" speedFactor="1.00" vaporized=""/>
    <tripinfo id="37" depart="24.00" departLane="-852_0" departPos="5.10" departSpeed="0.00" departDelay="2.00" arrival="142.00" arrivalLane="904_0" arrivalPos="201.83" arrivalSpeed="12.86" duration="118.00" routeLength="626.18" waitingTime="42.00" waitingCount="4" stopTime="0.00" timeLoss="72.47" rerouteNo="0" devices="tripinfo_37" vType="DEFAULT_VEHTYPE" speedFactor="1.00" vaporized=""/>
    <tripinfo id="19" depart="12.00" departLane="-900_0" departPos="5.10" departSpeed="0.00" departDelay="0.00" arrival="142.00" arrivalLane="343_0" arrivalPos="162.53" arrivalSpeed="13.89" duration="130.00" routeLength="766.06" waitingTime="58.00" waitingCount="2" stopTime="0.00" timeLoss="74.51" rerouteNo="0" devices="tripinfo_19" vType="DEFAULT_VEHTYPE" speedFactor="1.00" vaporized=""/>
    <tripinfo id="48" depart="33.00" departLane="-405_0" departPos="5.10" departSpeed="0.00" departDelay="0.00" arrival="148.00" arrivalLane="477_0" arrivalPos="111.28" arrivalSpeed="12.75" duration="115.00" routeLength="628.78" waitingTime="59.00" waitingCount="1" stopTime="0.00" timeLoss="69.09" rerouteNo="0" devices="tripinfo_48" vType="DEFAULT_VEHTYPE" speedFactor="1.00" vaporized=""/>
    <tripinfo id="98" depart="67.00" departLane="-686_0" departPos="5.10" departSpeed="0.00" departDelay="0.00" arrival="148.00" arrivalLane="698_1" arrivalPos="233.81" arrivalSpeed="12.77" duration="81.00" routeLength="384.84" waitingTime="41.00" waitingCount="1" stopTime="0.00" timeLoss="52.44" rerouteNo="0" devices="tripinfo_98" vType="DEFAULT_VEHTYPE" speedFactor="1.00" vaporized=""/>
    <tripinfo id="13" depart="8.00" departLane="-852_0" departPos="5.10" departSpeed="0.00" departDelay="0.00" arrival="149.00" arrivalLane="343_0" arrivalPos="162.53" arrivalSpeed="13.17" duration="141.00" routeLength="694.19" waitingTime="64.00" waitingCount="4" stopTime="0.00" timeLoss="91.01" rerouteNo="0" devices="tripinfo_13" vType="DEFAULT_VEHTYPE" speedFactor="1.00" vaporized=""/>
    <tripinfo id="124" depart="79.00" departLane="-712_0" departPos="5.10" departSpeed="0.00" departDelay="0.00" arrival="150.00" arrivalLane="716_0" arrivalPos="180.43" arrivalSpeed="13.48" duration="71.00" routeLength="384.97" waitingTime="31.00" waitingCount="1" stopTime="0.00" timeLoss="42.45" rerouteNo="0" devices="tripinfo_124" vType="DEFAULT_VEHTYPE" speedFactor="1.00" vaporized=""/>
    <tripinfo id="129" depart="82.00" departLane="-712_0" departPos="5.10" departSpeed="0.00" departDelay="2.00" arrival="151.00" arrivalLane="734_0" arrivalPos="177.74" arrivalSpeed="13.11" duration="69.00" routeLength="376.71" waitingTime="29.00" waitingCount="1" stopTime="0.00" timeLoss="41.27" rerouteNo="0" devices="tripinfo_129" vType="DEFAULT_VEHTYPE" speedFactor="1.00" vaporized=""/>
    <tripinfo id="170" depart="113.00" departLane="-686_0" departPos="5.10" departSpeed="0.00" departDelay="0.00" arrival="151.00" arrivalLane="704_0" arrivalPos="174.34" arrivalSpeed="13.10" duration="38.00" routeLength="311.25" waitingTime="2.00" waitingCount="1" stopTime="0.00" timeLoss="15.50" rerouteNo="0" devices="tripinfo_170" vType="DEFAULT_VEHTYPE" speedFactor="1.00" vaporized=""/>
    <tripinfo id="67" depart="46.00" departLane="-435_0" departPos="5.10" departSpeed="0.00" departDelay="0.00" arrival="164.00" arrivalLane="716_0" arrivalPos="180.43" arrivalSpeed="13.47" duration="118.00" routeLength="758.01" waitingTime="48.00" waitingCount="2" stopTime="0.00" timeLoss="63.12" rerouteNo="0" devices="tripinfo_67" vType="DEFAULT_VEHTYPE" speedFactor="1.00" vaporized=""/>
    <tripinfo id="38" depart="25.00" departLane="-844_0" departPos="5.10" departSpeed="0.00" departDelay="3.00" arrival="167.00" arrivalLane="435_1" arrivalPos="236.48" arrivalSpeed="12.83" duration="142.00" routeLength="997.89" waitingTime="40.00" waitingCount="3" stopTime="0.00" timeLoss="70.06" rerouteNo="0" devices="tripinfo_38" vType="DEFAULT_VEHTYPE" speedFactor="1.00" vaporized=""/>
    <tripinfo id="11" depart="8.00" departLane="-175_0" departPos="5.10" departSpeed="0.00" departDelay="0.00" arrival="168.00" arrivalLane="393_0" arrivalPos="125.65" arrivalSpeed="12.96" duration="160.00" routeLength="907.78" waitingTime="72.00" waitingCount="3" stopTime="0.00" timeLoss="94.34" rerouteNo="0" devices="tripinfo_11" vType="DEFAULT_VEHTYPE" speedFactor="1.00" vaporized=""/>
    <tripinfo id="54" depart="39.00" departLane="-734_0" departPos="5.10" departSpeed="0.00" departDelay="0.00" arrival="169.00" arrivalLane="477_0" arrivalPos="111.28" arrivalSpeed="13.52" duration="130.00" routeLength="647.91" waitingTime="59.00" waitingCount="1" stopTime="0.00" timeLoss="82.48" rerouteNo="0" devices="tripinfo_54" vType="DEFAULT_VEHTYPE" speedFactor="1.00" vaporized=""/>
    <tripinfo id="195" depart="129.00" departLane="-688_0" departPos="5.10" departSpeed="0.00" departDelay="0.00" arrival="170.00" arrivalLane="686_0" arrivalPos="134.26" arrivalSpeed="12.70" duration="41.00" routeLength="324.76" waitingTime="6.00" waitingCount="1" stopTime="0.00" timeLoss="17.34" rerouteNo="0" devices="tripinfo_195" vType="DEFAULT_VEHTYPE" speedFactor="1.00" vaporized=""/>
    <tripinfo id="199" depart="133.00" departLane="-688_0" departPos="5.10" departSpeed="0.00" departDelay="0.00" arrival="175.00" arrivalLane="704_0" arrivalPos="174.34" arrivalSpeed="12.67" duration="42.00" routeLength="363.07" waitingTime="3.00" waitingCount="1" stopTime="0.00" timeLoss="15.80" rerouteNo="0" devices="tripinfo_199" vType="DEFAULT_VEHTYPE" speedFactor="1.00" vaporized=""/>
    <tripinfo id="73" depart="50.00" departLane="-712_0" departPos="5.10" departSpeed="0.00" departDelay="0.00" arrival="178.00" arrivalLane="435_1" arrivalPos="236.48" arrivalSpeed="13.90" duration="128.00" routeLength="792.15" waitingTime="55.00" waitingCount="1" stopTime="0.00" timeLoss="70.15" rerouteNo="0" devices="tripinfo_73" vType="DEFAULT_VEHTYPE" speedFactor="1.00" vaporized=""/>
    <tripinfo id="65" depart="44.00" departLane="-688_0" departPos="5.10" departSpeed="0.00" departDelay="0.00" arrival="182.00" arrivalLane="175_1" arrivalPos="193.90" arrivalSpeed="13.03" duration="138.00" routeLength="740.27" waitingTime="59.00" waitingCount="3" stopTime="0.00" timeLoss="84.44" rerouteNo="0" devices="tripinfo_65" vType="DEFAULT_VEHTYPE" speedFactor="1.00" vaporized=""/>
    <tripinfo id="192" depart="127.00" departLane="-734_0" departPos="5.10" departSpeed="0.00" departDelay="0.00" arrival="184.00" arrivalLane="716_0" arrivalPos="180.43" arrivalSpeed="13.08" duration="57.00" routeLength="372.08" waitingTime="18.00" waitingCount="1" stopTime="0.00" timeLoss="30.00" rerouteNo="0" devices="tripinfo_192" vType="DEFAULT_VEHTYPE" speedFactor="1.00" vaporized=""/>
    <tripinfo id="24" depart="16.00" departLane="-435_0" departPos="5.10" departSpeed="0.00" departDelay="0.00" arrival="192.00" arrivalLane="904_0" arrivalPos="201.83" arrivalSpeed="13.01" duration="176.00" routeLength="996.75" waitingTime="86.00" waitingCount="2" stopTime="0.00" timeLoss="103.89" rerouteNo="0" devices="tripinfo_24" vType="DEFAULT_VEHTYPE" speedFactor="1.00" vaporized=""/>
    <tripinfo id="219" depart="147.00" departLane="-734_0" departPos="5.10" departSpeed="0.00" departDelay="0.00" arrival="194.00" arrivalLane="712_0" arrivalPos="195.35" arrivalSpeed="13.73" duration="47.00" routeLength="384.35" waitingTime="4.00" waitingCount="1" stopTime="0.00" timeLoss="18.49" rerouteNo="0" devices="tripinfo_219" vType="DEFAULT_VEHTYPE" speedFactor="1.00" vaporized=""/>
    <tripinfo id="5" depart="4.00" departLane="-686_0" departPos="5.10" departSpeed="0.00" departDelay="1.00" arrival="195.00" arrivalLane="393_0" arrivalPos="125.65" arrivalSpeed="12.86" duration="191.00" routeLength="1200.40" waitingTime="57.00" waitingCount="3" stopTime="0.00" timeLoss="103.84" rerouteNo="0" devices="tripinfo_5" vType="DEFAULT_VEHTYPE" speedFactor="1.00" vaporized=""/>
    <tripinfo id="93" depart="62.00" departLane="-477_0" departPos="5.10" departSpeed="0.00" departDelay="0.00" arrival="197.00" arrivalLane="734_0" arrivalPos="177.74" arrivalSpeed="13.53" duration="135.00" routeLength="660.10" waitingTime="60.00" waitingCount="5" stopTime="0.00" timeLoss="87.38" rerouteNo="0" devices="tripinfo_93" vType="DEFAULT_VEHTYPE" speedFactor="1.00" vaporized=""/>
    <tripinfo id="62" depart="42.00" departLane="-175_0" departPos="5.10" departSpeed="0.00" departDelay="0.00" arrival="198.00" arrivalLane="393_0" arrivalPos="125.65" arrivalSpeed="12.77" duration="156.00" routeLength="907.78" waitingTime="61.00" waitingCount="3" stopTime="0.00" timeLoss="89.97" rerouteNo="0" devices="tripinfo_62" vType="DEFAULT_VEHTYPE" speedFactor="1.00" vaporized=""/>
    <tripinfo id="187" depart="123.00" departLane="-684_0" departPos="5.10" departSpeed="0.00" departDelay="0.00" arrival="198.00" arrivalLane="704_0" arrivalPos="174.34" arrivalSpeed="12.99" duration="75.00" routeLength="350.40" waitingTime="39.00" waitingCount="1" stopTime="0.00" timeLoss="49.10" rerouteNo="0" devices="tripinfo_187" vType="DEFAULT_VEHTYPE" speedFactor="1.00" vaporized=""/>
    <tripinfo id="110" depart="72.00" departLane="-477_0" departPos="5.10" departSpeed="0.00" departDelay="0.00" arrival="199.00" arrivalLane="734_0" arrivalPos="177.74" arrivalSpeed="13.33" duration="127.00" routeLength="660.10" waitingTime="46.00" waitingCount="4" stopTime="0.00" timeLoss="79.21" rerouteNo="0" devices="tripinfo_110" vType="DEFAULT_VEHTYPE" speedFactor="1.00" vaporized=""/>
    <tripinfo id="248" depart="166.00" departLane="-684_0" departPos="5.10" departSpeed="0.00" departDelay="0.00" arrival="199.00" arrivalLane="688_0" arrivalPos="174.96" arrivalSpeed="13.62" duration="33.00" routeLength="353.37" waitingTime="0.00" waitingCount="0" stopTime="0.00" timeLoss="7.42" rerouteNo="0" devices="tripinfo_248" vType="DEFAULT_VEHTYPE" speedFactor="1.00" vaporized=""/>
    <tripinfo id="224" depart="154.00" departLane="-900_0" departPos="5.10" departSpeed="0.00" departDelay="0.00" arrival="201.00" arrivalLane="844_0" arrivalPos="190.71" arrivalSpeed="13.08" duration="47.00" routeLength="413.19" waitingTime="6.00" waitingCount="1" stopTime="0.00" timeLoss="17.23" rerouteNo="0" devices="tripinfo_224" vType="DEFAULT_VEHTYPE" speedFactor="1.00" vaporized=""/>
    <tripinfo id="161" depart="107.00" departLane="-477_0" departPos="5.10" departSpeed="0.00" departDelay="0.00" arrival="202.00" arrivalLane="435_0" arrivalPos="236.48" arrivalSpeed="13.16" duration="95.00" routeLength="364.93" waitingTime="59.00" waitingCount="1" stopTime="0.00" timeLoss="68.69" rerouteNo="0" devices="tripinfo_161" vType="DEFAULT_VEHTYPE" speedFactor="1.00" vaporized=""/>
    <tripinfo id="169" depart="111.00" departLane="-435_0" departPos="5.10" departSpeed="0.00" departDelay="0.00" arrival="202.00" arrivalLane="712_0" arrivalPos="195.35" arrivalSpeed="13.40" duration="91.00" routeLength="778.74" waitingTime="18.00" waitingCount="2" stopTime="0.00" timeLoss="34.39" rerouteNo="0" devices="tripinfo_169" vType="DEFAULT_VEHTYPE" speedFactor="1.00" vaporized=""/>
    <tripinfo id="226" depart="157.00" departLane="-900_0" departPos="5.10" departSpeed="0.00" departDelay="2.00" arrival="203.00" arrivalLane="844_0" arrivalPos="190.71" arrivalSpeed="12.74" duration="46.00" routeLength="413.19" waitingTime="4.00" waitingCount="1" stopTime="0.00" timeLoss="16.02" rerouteNo="0" devices="tripinfo_226" vType="DEFAULT_VEHTYPE" speedFactor="1.00" vaporized=""/>
    <tripinfo id="194" depart="128.00" departLane="-435_0" departPos="5.10" departSpeed="0.00" departDelay="0.00" arrival="203.00" arrivalLane="734_0" arrivalPos="177.74" arrivalSpeed="12.66" duration="75.00" routeLength="768.36" waitingTime="2.00" waitingCount="2" stopTime="0.00" timeLoss="19.30" rerouteNo="0" devices="tripinfo_194" vType="DEFAULT_VEHTYPE" speedFactor="1.00" vaporized=""/>
    <tripinfo id="52" depart="37.00" departLane="-343_0" departPos="5.10" departSpeed="0.00" departDelay="0.00" arrival="206.00" arrivalLane="343_0" arrivalPos="162.53" arrivalSpeed="13.71" duration="169.00" routeLength="1138.37" waitingTime="41.00" waitingCount="5" stopTime="0.00" timeLoss="86.70" rerouteNo="0" devices="tripinfo_52" vType="DEFAULT_VEHTYPE" speedFactor="1.00" vaporized=""/>
    <tripinfo id="21" depart="13.00" departLane="-852_0" departPos="5.10" departSpeed="0.00" departDelay="0.00" arrival="207.00" arrivalLane="716_0" arrivalPos="180.43" arrivalSpeed="12.61" duration="194.00" routeLength="716.35" waitingTime="107.00" waitingCount="6" stopTime="0.00" timeLoss="141.59" rerouteNo="0" devices="tripinfo_21" vType="DEFAULT_VEHTYPE" speedFactor="1.00" vaporized=""/>
    <tripinfo id="182" depart="120.00" departLane="-734_0" departPos="5.10" departSpeed="0.00" departDelay="0.00" arrival="207.00" arrivalLane="405_0" arrivalPos="97.20" arrivalSpeed="12.61" duration="87.00" routeLength="511.77" waitingTime="28.00" waitingCount="2" stopTime="0.00" timeLoss="49.38" rerouteNo="0" devices="tripinfo_182" vType="DEFAULT_VEHTYPE" speedFactor="1.00" vaporized=""/>
    <tripinfo id="0" depart="0.00" departLane="-712_0" departPos="5.10" departSpeed="0.00" departDelay="0.00" arrival="208.00" arrivalLane="712_0" arrivalPos="195.35" arrivalSpeed="12.71" duration="208.00" routeLength="1383.74" waitingTime="74.00" waitingCount="5" stopTime="0.00" timeLoss="108.21" rerouteNo="0" devices="tripinfo_0" vType="DEFAULT_VEHTYPE" speedFactor="1.00" vaporized=""/>
    <tripinfo id="136" depart="84.00" departLane="-405_0" departPos="5.10" departSpeed="0.00" departDelay="0.00" arrival="209.00" arrivalLane="844_1" arrivalPos="190.71" arrivalSpeed="13.66" duration="125.00" routeLength="423.00" waitingTime="78.00" waitingCount="3" stopTime="0.00" timeLoss="94.16" rerouteNo="0" devices="tripinfo_136" vType="DEFAULT_VEHTYPE" speedFactor="1.00" vaporized=""/>
    <tripinfo id="89" depart="59.00" departLane="-405_0" departPos="5.10" departSpeed="0.00" departDelay="0.00" arrival="209.00" arrivalLane="716_0" arrivalPos="180.43" arrivalSpeed="12.68" duration="150.00" routeLength="530.29" waitingTime="85.00" waitingCount="4" stopTime="0.00" timeLoss="110.97" rerouteNo="0" devices="tripinfo_89" vType="DEFAULT_VEHTYPE" speedFactor="1.00" vaporized=""/>
    <tripinfo id="75" depart="51.00" departLane="-393_0" departPos="5.10" departSpeed="0.00" departDelay="0.00" arrival="210.00" arrivalLane="852_0" arrivalPos="147.75" arrivalSpeed="13.66" duration="159.00" routeLength="671.71" waitingTime="77.00" waitingCount="4" stopTime="0.00" timeLoss="110.59" rerouteNo="0" devices="tripinfo_75" vType="DEFAULT_VEHTYPE" speedFactor="1.00" vaporized=""/>
    <tripinfo id="239" depart="164.00" departLane="-435_0" departPos="5.10" departSpeed="0.00" departDelay="0.00" arrival="211.00" arrivalLane="393_1" arrivalPos="125.65" arrivalSpeed="13.23" duration="47.00" routeLength="551.81" waitingTime="0.00" waitingCount="0" stopTime="0.00" timeLoss="6.73" rerouteNo="0" devices="tripinfo_239" vType="DEFAULT_VEHTYPE" speedFactor="1.00" vaporized=""/>
    <tripinfo id="150" depart="96.00" departLane="-904_0" departPos="5.10" departSpeed="0.00" departDelay="0.00" arrival="213.00" arrivalLane="900_0" arrivalPos="221.08" arrivalSpeed="13.05" duration="117.00" routeLength="682.28" waitingTime="34.00" waitingCount="4" stopTime="0.00" timeLoss="67.35" rerouteNo="0" devices="tripinfo_150" vType="DEFAULT_VEHTYPE" speedFactor="1.00" vaporized=""/>
    <tripinfo id="164" depart="111.00" departLane="-712_0" departPos="5.10" departSpeed="0.00" departDelay="2.00" arrival="213.00" arrivalLane="904_0" arrivalPos="201.83" arrivalSpeed="13.39" duration="102.00" routeLength="761.32" waitingTime="27.00" waitingCount="2" stopTime="0.00" timeLoss="46.37" rerouteNo="0" devices="tripinfo_164" vType="DEFAULT_VEHTYPE" speedFactor="1.00" vaporized=""/>
    <tripinfo id="80" depart="54.00" departLane="-393_0" departPos="5.10" departSpeed="0.00" departDelay="1.00" arrival="213.00" arrivalLane="852_0" arrivalPos="147.75" arrivalSpeed="12.98" duration="159.00" routeLength="671.71" waitingTime="74.00" waitingCount="4" stopTime="0.00" timeLoss="110.09" rerouteNo="0" devices="tripinfo_80" vType="DEFAULT_VEHTYPE" speedFactor="1.00" vaporized=""/>
    <tripinfo id="171" depart="114.00" departLane="-712_0" departPos="5.10" departSpeed="0.00" departDelay="1.00" arrival="215.00" arrivalLane="904_0" arrivalPos="201.83" arrivalSpeed="12.77" duration="101.00" routeLength="761.32" waitingTime="24.00" waitingCount="2" stopTime="0.00" timeLoss="45.38" rerouteNo="0" devices="tripinfo_171" vType="DEFAULT_VEHTYPE" speedFactor="1.00" vaporized=""/>
    <tripinfo id="116" depart="75.00" departLane="-393_0" departPos="5.10" departSpeed="0.00" departDelay="0.00" arrival="220.00" arrivalLane="900_0" arrivalPos="221.08" arrivalSpeed="12.77" duration="145.00" routeLength="736.69" waitingTime="68.00" waitingCount="3" stopTime="0.00" timeLoss="91.16" rerouteNo="0" devices="tripinfo_116" vType="DEFAULT_VEHTYPE" speedFactor="1.00" vaporized=""/>
    <tripinfo id="120" depart="81.00" departLane="-716_0" departPos="5.10" departSpeed="0.00" departDelay="4.00" arrival="220.00" arrivalLane="904_0" arrivalPos="201.83" arrivalSpeed="13.68" duration="139.00" routeLength="752.02" waitingTime="63.00" waitingCount="3" stopTime="0.00" timeLoss="84.55" rerouteNo="0" devices="tripinfo_120" vType="DEFAULT_VEHTYPE" speedFactor="1.00" vaporized=""/>
    <tripinfo id="261" depart="177.00" departLane="-698_0" departPos="5.10" departSpeed="0.00" departDelay="0.00" arrival="221.00" arrivalLane="684_0" arrivalPos="157.05" arrivalSpeed="13.32" duration="44.00" routeLength="392.11" waitingTime="1.00" waitingCount="1" stopTime="0.00" timeLoss="14.91" rerouteNo="0" devices="tripinfo_261" vType="DEFAULT_VEHTYPE" speedFactor="1.00" vaporized=""/>
    <tripinfo id="148" depart="96.00" departLane="-734_0" departPos="5.10" departSpeed="0.00" departDelay="0.00" arrival="222.00" arrivalLane="904_0" arrivalPos="201.83" arrivalSpeed="13.22" duration="126.00" routeLength="738.04" waitingTime="54.00" waitingCount="2" stopTime="0.00" timeLoss="72.47" rerouteNo="0" devices="tripinfo_148" vType="DEFAULT_VEHTYPE" speedFactor="1.00" vaporized=""/>
    <tripinfo id="44" depart="31.00" departLane="-435_0" departPos="5.10" departSpeed="0.00" departDelay="0.00" arrival="222.00" arrivalLane="852_0" arrivalPos="147.75" arrivalSpeed="13.40" duration="191.00" routeLength="950.41" waitingTime="83.00" waitingCount="5" stopTime="0.00" timeLoss="122.53" rerouteNo="0" devices="tripinfo_44" vType="DEFAULT_VEHTYPE" speedFactor="1.00" vaporized=""/>
    <tripinfo id="68" depart="49.00" departLane="-435_0" departPos="5.10" departSpeed="0.00" departDelay="3.00" arrival="227.00" arrivalLane="844_1" arrivalPos="190.71" arrivalSpeed="13.10" duration="178.00" routeLength="989.47" waitingTime="65.00" waitingCount="4" stopTime="0.00" timeLoss="105.91" rerouteNo="0" devices="tripinfo_68" vType="DEFAULT_VEHTYPE" speedFactor="1.00" vaporized=""/>
    <tripinfo id="84" depart="56.00" departLane="-900_0" departPos="5.10" departSpeed="0.00" departDelay="0.00" arrival="228.00" arrivalLane="904_0" arrivalPos="201.83" arrivalSpeed="12.90" duration="172.00" routeLength="698.05" waitingTime="86.00" waitingCount="4" stopTime="0.00" timeLoss="121.57" rerouteNo="0" devices="tripinfo_84" vType="DEFAULT_VEHTYPE" speedFactor="1.00" vaporized=""/>