<?xml version="1.0" encoding="UTF-8"?>

<!-- generated on 06/21/18 21:47:26 by Eclipse SUMO GUI Version v0_32_0+1428-4ab3f27cbd
<configuration xmlns:xsi="http://www.w3.org/2001/XMLSchema-instance" xsi:noNamespaceSchemaLocation="http://sumo.dlr.de/xsd/sumoConfiguration.xsd">

    <input>
        <net-file value="./city/city.net.xml"/>
        <route-files value="./city/routes.rou.alt.xml"/>
        <additional-files value="./city/e2.add.xml"/>
    </input>

    <output>
        <tripinfo-output value="./city/city_tripinfo-output_MaxOccupancyScheduler.xml"/>
    </output>

    <traci_server>
        <remote-port value="51767"/>
    </traci_server>

</configuration>
-->

<tripinfos xmlns:xsi="http://www.w3.org/2001/XMLSchema-instance" xsi:noNamespaceSchemaLocation="http://sumo.dlr.de/xsd/tripinfo_file.xsd">
    <tripinfo id="3" depart="1.00" departLane="-686_0" departPos="5.10" departSpeed="0.00" departDelay="0.00" arrival="27.00" arrivalLane="684_1" arrivalPos="157.05" arrivalSpeed="12.92" duration="26.00" routeLength="309.08" waitingTime="0.00" waitingCount="0" stopTime="0.00" timeLoss="3.48" rerouteNo="0" devices="tripinfo_3" vType="DEFAULT_VEHTYPE" speedFactor="1.00" vaporized=""/>
    <tripinfo id="20" depart="12.00" departLane="-405_0" departPos="5.10" departSpeed="0.00" departDelay="0.00" arrival="48.00" arrivalLane="904_0" arrivalPos="201.83" arrivalSpeed="13.20" duration="36.00" routeLength="436.32" waitingTime="0.00" waitingCount="0" stopTime="0.00" timeLoss="4.36" rerouteNo="0" devices="tripinfo_20" vType="DEFAULT_VEHTYPE" speedFactor="1.00" vaporized=""/>
    <tripinfo id="25" depart="16.00" departLane="-686_0" departPos="5.10" departSpeed="0.00" departDelay="0.00" arrival="65.00" arrivalLane="704_0" arrivalPos="174.34" arrivalSpeed="13.33" duration="49.00" routeLength="311.25" waitingTime="15.00" waitingCount="2" stopTime="0.00" timeLoss="26.09" rerouteNo="0" devices="tripinfo_25" vType="DEFAULT_VEHTYPE" speedFactor="1.00" vaporized=""/>
    <tripinfo id="13" depart="8.00" departLane="-852_0" departPos="5.10" departSpeed="0.00" departDelay="0.00" arrival="65.00" arrivalLane="343_0" arrivalPos="162.53" arrivalSpeed="13.72" duration="57.00" routeLength="694.19" waitingTime="0.00" waitingCount="0" stopTime="0.00" timeLoss="6.33" rerouteNo="0" devices="tripinfo_13" vType="DEFAULT_VEHTYPE" speedFactor="1.00" vaporized=""/>
    <tripinfo id="2" depart="0.00" departLane="-393_0" departPos="5.10" departSpeed="0.00" departDelay="0.00" arrival="72.00" arrivalLane="904_0" arrivalPos="201.83" arrivalSpeed="12.70" duration="72.00" routeLength="718.05" waitingTime="9.00" waitingCount="1" stopTime="0.00" timeLoss="19.75" rerouteNo="0" devices="tripinfo_2" vType="DEFAULT_VEHTYPE" speedFactor="1.00" vaporized=""/>
    <tripinfo id="36" depart="21.00" departLane="-712_0" departPos="5.10" departSpeed="0.00" departDelay="0.00" arrival="73.00" arrivalLane="716_0" arrivalPos="180.43" arrivalSpeed="13.74" duration="52.00" routeLength="384.97" waitingTime="13.00" waitingCount="1" stopTime="0.00" timeLoss="24.03" rerouteNo="0" devices="tripinfo_36" vType="DEFAULT_VEHTYPE" speedFactor="1.00" vaporized=""/>
    <tripinfo id="18" depart="12.00" departLane="-712_0" departPos="5.10" departSpeed="0.00" departDelay="0.00" arrival="78.00" arrivalLane="405_0" arrivalPos="97.20" arrivalSpeed="12.72" duration="66.00" routeLength="535.05" waitingTime="16.00" waitingCount="1" stopTime="0.00" timeLoss="27.20" rerouteNo="0" devices="tripinfo_18" vType="DEFAULT_VEHTYPE" speedFactor="1.00" vaporized=""/>
    <tripinfo id="56" depart="40.00" departLane="-688_0" departPos="5.10" departSpeed="0.00" departDelay="0.00" arrival="81.00" arrivalLane="684_0" arrivalPos="157.05" arrivalSpeed="13.68" duration="41.00" routeLength="346.21" waitingTime="4.00" waitingCount="1" stopTime="0.00" timeLoss="15.48" rerouteNo="0" devices="tripinfo_56" vType="DEFAULT_VEHTYPE" speedFactor="1.00" vaporized=""/>
    <tripinfo id="30" depart="19.00" departLane="-900_0" departPos="5.10" departSpeed="0.00" departDelay="0.00" arrival="81.00" arrivalLane="852_0" arrivalPos="147.75" arrivalSpeed="12.77" duration="62.00" routeLength="382.60" waitingTime="18.00" waitingCount="2" stopTime="0.00" timeLoss="33.77" rerouteNo="0" devices="tripinfo_30" vType="DEFAULT_VEHTYPE" speedFactor="1.00" vaporized=""/>
    <tripinfo id="60" depart="41.00" departLane="-704_0" departPos="5.10" departSpeed="0.00" departDelay="0.00" arrival="91.00" arrivalLane="698_0" arrivalPos="233.81" arrivalSpeed="12.69" duration="50.00" routeLength="418.79" waitingTime="9.00" waitingCount="2" stopTime="0.00" timeLoss="19.28" rerouteNo="0" devices="tripinfo_60" vType="DEFAULT_VEHTYPE" speedFactor="1.00" vaporized=""/>
    <tripinfo id="74" depart="50.00" departLane="-684_0" departPos="5.10" departSpeed="0.00" departDelay="0.00" arrival="98.00" arrivalLane="686_0" arrivalPos="134.26" arrivalSpeed="13.75" duration="48.00" routeLength="307.06" waitingTime="17.00" waitingCount="1" stopTime="0.00" timeLoss="25.65" rerouteNo="0" devices="tripinfo_74" vType="DEFAULT_VEHTYPE" speedFactor="1.00" vaporized=""/>
    <tripinfo id="16" depart="11.00" departLane="-716_0" departPos="5.10" departSpeed="0.00" departDelay="0.00" arrival="101.00" arrivalLane="477_0" arrivalPos="111.28" arrivalSpeed="13.43" duration="90.00" routeLength="648.69" waitingTime="21.00" waitingCount="3" stopTime="0.00" timeLoss="42.86" rerouteNo="0" devices="tripinfo_16" vType="DEFAULT_VEHTYPE" speedFactor="1.00" vaporized=""/>
    <tripinfo id="27" depart="18.00" departLane="-343_0" departPos="5.10" departSpeed="0.00" departDelay="0.00" arrival="102.00" arrivalLane="734_0" arrivalPos="177.74" arrivalSpeed="13.88" duration="84.00" routeLength="818.01" waitingTime="14.00" waitingCount="1" stopTime="0.00" timeLoss="24.89" rerouteNo="0" devices="tripinfo_27" vType="DEFAULT_VEHTYPE" speedFactor="1.00" vaporized=""/>
    <tripinfo id="54" depart="39.00" departLane="-734_0" departPos="5.10" departSpeed="0.00" departDelay="0.00" arrival="103.00" arrivalLane="477_0" arrivalPos="111.28" arrivalSpeed="13.43" duration="64.00" routeLength="647.91" waitingTime="2.00" waitingCount="1" stopTime="0.00" timeLoss="16.73" rerouteNo="0" devices="tripinfo_54" vType="DEFAULT_VEHTYPE" speedFactor="1.00" vaporized=""/>
    <tripinfo id="19" depart="12.00" departLane="-900_0" departPos="5.10" departSpeed="0.00" departDelay="0.00" arrival="106.00" arrivalLane="343_0" arrivalPos="162.53" arrivalSpeed="13.69" duration="94.00" routeLength="766.06" waitingTime="20.00" waitingCount="1" stopTime="0.00" timeLoss="38.41" rerouteNo="0" devices="tripinfo_19" vType="DEFAULT_VEHTYPE" speedFactor="1.00" vaporized=""/>
    <tripinfo id="28" depart="21.00" departLane="-343_0" departPos="5.10" departSpeed="0.00" departDelay="2.00" arrival="109.00" arrivalLane="175_0" arrivalPos="193.90" arrivalSpeed="12.65" duration="88.00" routeLength="945.04" waitingTime="3.00" waitingCount="2" stopTime="0.00" timeLoss="20.01" rerouteNo="0" devices="tripinfo_28" vType="DEFAULT_VEHTYPE" speedFactor="1.00" vaporized=""/>
    <tripinfo id="35" depart="21.00" departLane="-852_0" departPos="5.10" departSpeed="0.00" departDelay="0.00" arrival="116.00" arrivalLane="904_0" arrivalPos="201.83" arrivalSpeed="13.64" duration="95.00" routeLength="626.18" waitingTime="23.00" waitingCount="3" stopTime="0.00" timeLoss="49.35" rerouteNo="0" devices="tripinfo_35" vType="DEFAULT_VEHTYPE" speedFactor="1.00" vaporized=""/>
    <tripinfo id="11" depart="8.00" departLane="-175_0" departPos="5.10" departSpeed="0.00" departDelay="0.00" arrival="117.00" arrivalLane="393_0" arrivalPos="125.65" arrivalSpeed="12.61" duration="109.00" routeLength="907.78" waitingTime="24.00" waitingCount="2" stopTime="0.00" timeLoss="43.01" rerouteNo="0" devices="tripinfo_11" vType="DEFAULT_VEHTYPE" speedFactor="1.00" vaporized=""/>
    <tripinfo id="37" depart="24.00" departLane="-852_0" departPos="5.10" departSpeed="0.00" departDelay="2.00" arrival="120.00" arrivalLane="904_0" arrivalPos="201.83" arrivalSpeed="12.91" duration="96.00" routeLength="626.18" waitingTime="18.00" waitingCount="3" stopTime="0.00" timeLoss="50.11" rerouteNo="0" devices="tripinfo_37" vType="DEFAULT_VEHTYPE" speedFactor="1.00" vaporized=""/>
    <tripinfo id="98" depart="67.00" departLane="-686_0" departPos="5.10" departSpeed="0.00" departDelay="0.00" arrival="128.00" arrivalLane="698_1" arrivalPos="233.81" arrivalSpeed="13.63" duration="61.00" routeLength="384.84" waitingTime="17.00" waitingCount="1" stopTime="0.00" timeLoss="32.35" rerouteNo="0" devices="tripinfo_98" vType="DEFAULT_VEHTYPE" speedFactor="1.00" vaporized=""/>
    <tripinfo id="69" depart="46.00" departLane="-712_0" departPos="5.10" departSpeed="0.00" departDelay="0.00" arrival="130.00" arrivalLane="716_0" arrivalPos="180.43" arrivalSpeed="12.94" duration="84.00" routeLength="384.97" waitingTime="45.00" waitingCount="1" stopTime="0.00" timeLoss="55.76" rerouteNo="0" devices="tripinfo_69" vType="DEFAULT_VEHTYPE" speedFactor="1.00" vaporized=""/>
    <tripinfo id="15" depart="11.00" departLane="-343_0" departPos="5.10" departSpeed="0.00" departDelay="0.00" arrival="132.00" arrivalLane="852_0" arrivalPos="147.75" arrivalSpeed="13.38" duration="121.00" routeLength="692.23" waitingTime="54.00" waitingCount="2" stopTime="0.00" timeLoss="71.05" rerouteNo="0" devices="tripinfo_15" vType="DEFAULT_VEHTYPE" speedFactor="1.00" vaporized=""/>
    <tripinfo id="131" depart="81.00" departLane="-734_0" departPos="5.10" departSpeed="0.00" departDelay="0.00" arrival="133.00" arrivalLane="477_0" arrivalPos="111.28" arrivalSpeed="13.82" duration="52.00" routeLength="647.91" waitingTime="0.00" waitingCount="0" stopTime="0.00" timeLoss="5.30" rerouteNo="0" devices="tripinfo_131" vType="DEFAULT_VEHTYPE" speedFactor="1.00" vaporized=""/>
    <tripinfo id="65" depart="44.00" departLane="-688_0" departPos="5.10" departSpeed="0.00" departDelay="0.00" arrival="134.00" arrivalLane="175_1" arrivalPos="193.90" arrivalSpeed="13.51" duration="90.00" routeLength="740.27" waitingTime="17.00" waitingCount="2" stopTime="0.00" timeLoss="36.53" rerouteNo="0" devices="tripinfo_65" vType="DEFAULT_VEHTYPE" speedFactor="1.00" vaporized=""/>
    <tripinfo id="59" depart="41.00" departLane="-343_0" departPos="5.10" departSpeed="0.00" departDelay="0.00" arrival="136.00" arrivalLane="904_0" arrivalPos="201.83" arrivalSpeed="13.50" duration="95.00" routeLength="738.57" waitingTime="27.00" waitingCount="1" stopTime="0.00" timeLoss="41.08" rerouteNo="0" devices="tripinfo_59" vType="DEFAULT_VEHTYPE" speedFactor="1.00" vaporized=""/>
    <tripinfo id="161" depart="107.00" departLane="-477_0" departPos="5.10" departSpeed="0.00" departDelay="0.00" arrival="138.00" arrivalLane="435_0" arrivalPos="236.48" arrivalSpeed="12.81" duration="31.00" routeLength="364.93" waitingTime="0.00" waitingCount="0" stopTime="0.00" timeLoss="3.88" rerouteNo="0" devices="tripinfo_161" vType="DEFAULT_VEHTYPE" speedFactor="1.00" vaporized=""/>
    <tripinfo id="124" depart="79.00" departLane="-712_0" departPos="5.10" departSpeed="0.00" departDelay="0.00" arrival="140.00" arrivalLane="716_0" arrivalPos="180.43" arrivalSpeed="13.68" duration="61.00" routeLength="384.97" waitingTime="21.00" waitingCount="1" stopTime="0.00" timeLoss="32.54" rerouteNo="0" devices="tripinfo_124" vType="DEFAULT_VEHTYPE" speedFactor="1.00" vaporized=""/>
    <tripinfo id="85" depart="59.00" departLane="-844_0" departPos="5.10" departSpeed="0.00" departDelay="3.00" arrival="140.00" arrivalLane="343_0" arrivalPos="162.53" arrivalSpeed="13.34" duration="81.00" routeLength="738.67" waitingTime="5.00" waitingCount="2" stopTime="0.00" timeLoss="27.62" rerouteNo="0" devices="tripinfo_85" vType="DEFAULT_VEHTYPE" speedFactor="1.00" vaporized=""/>
    <tripinfo id="129" depart="82.00" departLane="-712_0" departPos="5.10" departSpeed="0.00" departDelay="2.00" arrival="142.00" arrivalLane="734_0" arrivalPos="177.74" arrivalSpeed="12.71" duration="60.00" routeLength="376.71" waitingTime="19.00" waitingCount="1" stopTime="0.00" timeLoss="32.01" rerouteNo="0" devices="tripinfo_129" vType="DEFAULT_VEHTYPE" speedFactor="1.00" vaporized=""/>
    <tripinfo id="119" depart="79.00" departLane="-684_0" departPos="5.10" departSpeed="0.00" departDelay="2.00" arrival="147.00" arrivalLane="688_0" arrivalPos="174.96" arrivalSpeed="13.16" duration="68.00" routeLength="353.37" waitingTime="34.00" waitingCount="1" stopTime="0.00" timeLoss="41.99" rerouteNo="0" devices="tripinfo_119" vType="DEFAULT_VEHTYPE" speedFactor="1.00" vaporized=""/>
    <tripinfo id="67" depart="46.00" departLane="-435_0" departPos="5.10" departSpeed="0.00" departDelay="0.00" arrival="149.00" arrivalLane="716_0" arrivalPos="180.43" arrivalSpeed="12.85" duration="103.00" routeLength="758.01" waitingTime="34.00" waitingCount="1" stopTime="0.00" timeLoss="48.38" rerouteNo="0" devices="tripinfo_67" vType="DEFAULT_VEHTYPE" speedFactor="1.00" vaporized=""/>
    <tripinfo id="61" depart="44.00" departLane="-343_0" departPos="5.10" departSpeed="0.00" departDelay="2.00" arrival="151.00" arrivalLane="175_0" arrivalPos="193.90" arrivalSpeed="12.93" duration="107.00" routeLength="945.04" waitingTime="9.00" waitingCount="3" stopTime="0.00" timeLoss="38.28" rerouteNo="0" devices="tripinfo_61" vType="DEFAULT_VEHTYPE" speedFactor="1.00" vaporized=""/>
    <tripinfo id="187" depart="123.00" departLane="-684_0" departPos="5.10" departSpeed="0.00" departDelay="0.00" arrival="153.00" arrivalLane="704_0" arrivalPos="174.34" arrivalSpeed="12.64" duration="30.00" routeLength="350.40" waitingTime="0.00" waitingCount="0" stopTime="0.00" timeLoss="4.46" rerouteNo="0" devices="tripinfo_187" vType="DEFAULT_VEHTYPE" speedFactor="1.00" vaporized=""/>
    <tripinfo id="81" depart="55.00" departLane="-435_0" departPos="5.10" departSpeed="0.00" departDelay="1.00" arrival="155.00" arrivalLane="405_0" arrivalPos="97.20" arrivalSpeed="13.50" duration="100.00" routeLength="764.52" waitingTime="21.00" waitingCount="2" stopTime="0.00" timeLoss="44.28" rerouteNo="0" devices="tripinfo_81" vType="DEFAULT_VEHTYPE" speedFactor="1.00" vaporized=""/>
    <tripinfo id="38" depart="25.00" departLane="-844_0" departPos="5.10" departSpeed="0.00" departDelay="3.00" arrival="159.00" arrivalLane="435_1" arrivalPos="236.48" arrivalSpeed="13.12" duration="134.00" routeLength="997.89" waitingTime="26.00" waitingCount="3" stopTime="0.00" timeLoss="61.50" rerouteNo="0" devices="tripinfo_38" vType="DEFAULT_VEHTYPE" speedFactor="1.00" vaporized=""/>
    <tripinfo id="172" depart="116.00" departLane="-852_0" departPos="5.10" departSpeed="0.00" departDelay="3.00" arrival="160.00" arrivalLane="900_0" arrivalPos="221.08" arrivalSpeed="13.00" duration="44.00" routeLength="386.95" waitingTime="2.00" waitingCount="2" stopTime="0.00" timeLoss="15.90" rerouteNo="0" devices="tripinfo_172" vType="DEFAULT_VEHTYPE" speedFactor="1.00" vaporized=""/>
    <tripinfo id="24" depart="16.00" departLane="-435_0" departPos="5.10" departSpeed="0.00" departDelay="0.00" arrival="160.00" arrivalLane="904_0" arrivalPos="201.83" arrivalSpeed="13.42" duration="144.00" routeLength="996.75" waitingTime="41.00" waitingCount="3" stopTime="0.00" timeLoss="72.28" rerouteNo="0" devices="tripinfo_24" vType="DEFAULT_VEHTYPE" speedFactor="1.00" vaporized=""/>
    <tripinfo id="73" depart="50.00" departLane="-712_0" departPos="5.10" departSpeed="0.00" departDelay="0.00" arrival="162.00" arrivalLane="435_1" arrivalPos="236.48" arrivalSpeed="13.50" duration="112.00" routeLength="792.15" waitingTime="43.00" waitingCount="1" stopTime="0.00" timeLoss="54.86" rerouteNo="0" devices="tripinfo_73" vType="DEFAULT_VEHTYPE" speedFactor="1.00" vaporized=""/>
    <tripinfo id="195" depart="129.00" departLane="-688_0" departPos="5.10" departSpeed="0.00" departDelay="0.00" arrival="162.00" arrivalLane="686_0" arrivalPos="134.26" arrivalSpeed="13.72" duration="33.00" routeLength="324.76" waitingTime="0.00" waitingCount="0" stopTime="0.00" timeLoss="8.83" rerouteNo="0" devices="tripinfo_195" vType="DEFAULT_VEHTYPE" speedFactor="1.00" vaporized=""/>
    <tripinfo id="66" depart="48.00" departLane="-734_0" departPos="5.10" departSpeed="0.00" departDelay="2.00" arrival="163.00" arrivalLane="852_0" arrivalPos="147.75" arrivalSpeed="13.34" duration="115.00" routeLength="703.78" waitingTime="45.00" waitingCount="3" stopTime="0.00" timeLoss="63.70" rerouteNo="0" devices="tripinfo_66" vType="DEFAULT_VEHTYPE" speedFactor="1.00" vaporized=""/>
    <tripinfo id="75" depart="51.00" departLane="-393_0" departPos="5.10" departSpeed="0.00" departDelay="0.00" arrival="164.00" arrivalLane="852_0" arrivalPos="147.75" arrivalSpeed="13.69" duration="113.00" routeLength="671.71" waitingTime="39.00" waitingCount="3" stopTime="0.00" timeLoss="64.67" rerouteNo="0" devices="tripinfo_75" vType="DEFAULT_VEHTYPE" speedFactor="1.00" vaporized=""/>
    <tripinfo id="62" depart="42.00" departLane="-175_0" departPos="5.10" departSpeed="0.00" departDelay="0.00" arrival="166.00" arrivalLane="393_0" arrivalPos="125.65" arrivalSpeed="13.16" duration="124.00" routeLength="907.78" waitingTime="43.00" waitingCount="1" stopTime="0.00" timeLoss="57.81" rerouteNo="0" devices="tripinfo_62" vType="DEFAULT_VEHTYPE" speedFactor="1.00" vaporized=""/>
    <tripinfo id="199" depart="133.00" departLane="-688_0" departPos="5.10" departSpeed="0.00" departDelay="0.00" arrival="166.00" arrivalLane="704_0" arrivalPos="174.34" arrivalSpeed="13.71" duration="33.00" routeLength="363.07" waitingTime="0.00" waitingCount="0" stopTime="0.00" timeLoss="6.67" rerouteNo="0" devices="tripinfo_199" vType="DEFAULT_VEHTYPE" speedFactor="1.00" vaporized=""/>
    <tripinfo id="146" depart="95.00" departLane="-343_0" departPos="5.10" departSpeed="0.00" departDelay="0.00" arrival="175.00" arrivalLane="435_1" arrivalPos="236.48" arrivalSpeed="13.86" duration="80.00" routeLength="592.20" waitingTime="23.00" waitingCount="2" stopTime="0.00" timeLoss="36.96" rerouteNo="0" devices="tripinfo_146" vType="DEFAULT_VEHTYPE" speedFactor="1.00" vaporized=""/>
    <tripinfo id="44" depart="31.00" departLane="-435_0" departPos="5.10" departSpeed="0.00" departDelay="0.00" arrival="177.00" arrivalLane="852_0" arrivalPos="147.75" arrivalSpeed="13.08" duration="146.00" routeLength="950.41" waitingTime="32.00" waitingCount="4" stopTime="0.00" timeLoss="77.42" rerouteNo="0" devices="tripinfo_44" vType="DEFAULT_VEHTYPE" speedFactor="1.00" vaporized=""/>
    <tripinfo id="22" depart="15.00" departLane="-900_0" departPos="5.10" departSpeed="0.00" departDelay="0.00" arrival="181.00" arrivalLane="175_0" arrivalPos="193.90" arrivalSpeed="12.85" duration="166.00" routeLength="1368.48" waitingTime="23.00" waitingCount="2" stopTime="0.00" timeLoss="66.90" rerouteNo="0" devices="tripinfo_22" vType="DEFAULT_VEHTYPE" speedFactor="1.00" vaporized=""/>
    <tripinfo id="182" depart="120.00" departLane="-734_0" departPos="5.10" departSpeed="0.00" departDelay="0.00" arrival="181.00" arrivalLane="405_0" arrivalPos="97.20" arrivalSpeed="13.69" duration="61.00" routeLength="511.77" waitingTime="2.00" waitingCount="1" stopTime="0.00" timeLoss="23.97" rerouteNo="0" devices="tripinfo_182" vType="DEFAULT_VEHTYPE" speedFactor="1.00" vaporized=""/>
    <tripinfo id="68" depart="49.00" departLane="-435_0" departPos="5.10" departSpeed="0.00" departDelay="3.00" arrival="182.00" arrivalLane="844_1" arrivalPos="190.71" arrivalSpeed="12.78" duration="133.00" routeLength="989.47" waitingTime="23.00" waitingCount="3" stopTime="0.00" timeLoss="61.81" rerouteNo="0" devices="tripinfo_68" vType="DEFAULT_VEHTYPE" speedFactor="1.00" vaporized=""/>
    <tripinfo id="48" depart="33.00" departLane="-405_0" departPos="5.10" departSpeed="0.00" departDelay="0.00" arrival="183.00" arrivalLane="477_0" arrivalPos="111.28" arrivalSpeed="13.67" duration="150.00" routeLength="628.78" waitingTime="83.00" waitingCount="2" stopTime="0.00" timeLoss="104.68" rerouteNo="0" devices="tripinfo_48" vType="DEFAULT_VEHTYPE" speedFactor="1.00" vaporized=""/>
    <tripinfo id="148" depart="96.00" departLane="-734_0" departPos="5.10" departSpeed="0.00" departDelay="0.00" arrival="192.00" arrivalLane="904_0" arrivalPos="201.83" arrivalSpeed="12.78" duration="96.00" routeLength="738.04" waitingTime="20.00" waitingCount="3" stopTime="0.00" timeLoss="42.65" rerouteNo="0" devices="tripinfo_148" vType="DEFAULT_VEHTYPE" speedFactor="1.00" vaporized=""/>
    <tripinfo id="1" depart="0.00" departLane="-405_0" departPos="5.10" departSpeed="0.00" departDelay="0.00" arrival="192.00" arrivalLane="688_0" arrivalPos="174.96" arrivalSpeed="13.11" duration="192.00" routeLength="1461.88" waitingTime="66.00" waitingCount="3" stopTime="0.00" timeLoss="86.03" rerouteNo="0" devices="tripinfo_1" vType="DEFAULT_VEHTYPE" speedFactor="1.00" vaporized=""/>
    <tripinfo id="92" depart="62.00" departLane="-698_0" departPos="5.10" departSpeed="0.00" departDelay="0.00" arrival="193.00" arrivalLane="686_0" arrivalPos="134.26" arrivalSpeed="13.17" duration="131.00" routeLength="386.41" waitingTime="79.00" waitingCount="5" stopTime="0.00" timeLoss="102.30" rerouteNo="0" devices="tripinfo_92" vType="DEFAULT_VEHTYPE" speedFactor="1.00" vaporized=""/>
    <tripinfo id="9" depart="7.00" departLane="-686_0" departPos="5.10" departSpeed="0.00" departDelay="2.00" arrival="196.00" arrivalLane="686_0" arrivalPos="134.26" arrivalSpeed="12.76" duration="189.00" routeLength="1091.00" waitingTime="83.00" waitingCount="4" stopTime="0.00" timeLoss="109.60" rerouteNo="0" devices="tripinfo_9" vType="DEFAULT_VEHTYPE" speedFactor="1.00" vaporized=""/>
    <tripinfo id="71" depart="52.00" departLane="-435_0" departPos="5.10" departSpeed="0.00" departDelay="6.00" arrival="198.00" arrivalLane="844_1" arrivalPos="190.71" arrivalSpeed="13.32" duration="146.00" routeLength="989.47" waitingTime="23.00" waitingCount="4" stopTime="0.00" timeLoss="74.08" rerouteNo="0" devices="tripinfo_71" vType="DEFAULT_VEHTYPE" speedFactor="1.00" vaporized=""/>
    <tripinfo id="86" depart="56.00" departLane="-343_0" departPos="5.10" departSpeed="0.00" departDelay="0.00" arrival="198.00" arrivalLane="900_0" arrivalPos="221.08" arrivalSpeed="12.72" duration="142.00" routeLength="757.21" waitingTime="42.00" waitingCount="5" stopTime="0.00" timeLoss="87.13" rerouteNo="0" devices="tripinfo_86" vType="DEFAULT_VEHTYPE" speedFactor="1.00" vaporized=""/>
    <tripinfo id="103" depart="69.00" departLane="-844_0" departPos="5.10" departSpeed="0.00" departDelay="1.00" arrival="201.00" arrivalLane="477_0" arrivalPos="111.28" arrivalSpeed="13.41" duration="132.00" routeLength="855.62" waitingTime="39.00" waitingCount="3" stopTime="0.00" timeLoss="70.08" rerouteNo="0" devices="tripinfo_103" vType="DEFAULT_VEHTYPE" speedFactor="1.00" vaporized=""/>
    <tripinfo id="95" depart="66.00" departLane="-712_0" departPos="5.10" departSpeed="0.00" departDelay="0.00" arrival="202.00" arrivalLane="844_1" arrivalPos="190.71" arrivalSpeed="12.98" duration="136.00" routeLength="766.12" waitingTime="46.00" waitingCount="4" stopTime="0.00" timeLoss="80.06" rerouteNo="0" devices="tripinfo_95" vType="DEFAULT_VEHTYPE" speedFactor="1.00" vaporized=""/>
    <tripinfo id="164" depart="111.00" departLane="-712_0" departPos="5.10" departSpeed="0.00" departDelay="2.00" arrival="202.00" arrivalLane="904_0" arrivalPos="201.83" arrivalSpeed="13.48" duration="91.00" routeLength="761.32" waitingTime="20.00" waitingCount="1" stopTime="0.00" timeLoss="35.38" rerouteNo="0" devices="tripinfo_164" vType="DEFAULT_VEHTYPE" speedFactor="1.00" vaporized=""/>
    <tripinfo id="42" depart="30.00" departLane="-712_0" departPos="5.10" departSpeed="0.00" departDelay="0.00" arrival="202.00" arrivalLane="900_0" arrivalPos="221.08" arrivalSpeed="13.44" duration="172.00" routeLength="792.04" waitingTime="78.00" waitingCount="5" stopTime="0.00" timeLoss="114.26" rerouteNo="0" devices="tripinfo_42" vType="DEFAULT_VEHTYPE" speedFactor="1.00" vaporized=""/>
    <tripinfo id="170" depart="113.00" departLane="-686_0" departPos="5.10" departSpeed="0.00" departDelay="0.00" arrival="202.00" arrivalLane="704_0" arrivalPos="174.34" arrivalSpeed="13.02" duration="89.00" routeLength="311.25" waitingTime="45.00" waitingCount="2" stopTime="0.00" timeLoss="65.85" rerouteNo="0" devices="tripinfo_170" vType="DEFAULT_VEHTYPE" speedFactor="1.00" vaporized=""/>
    <tripinfo id="197" depart="131.00" departLane="-712_0" departPos="5.10" departSpeed="0.00" departDelay="1.00" arrival="203.00" arrivalLane="477_0" arrivalPos="111.28" arrivalSpeed="13.66" duration="72.00" routeLength="663.82" waitingTime="8.00" waitingCount="1" stopTime="0.00" timeLoss="23.59" rerouteNo="0" devices="tripinfo_197" vType="DEFAULT_VEHTYPE" speedFactor="1.00" vaporized=""/>
    <tripinfo id="107" depart="71.00" departLane="-712_0" departPos="5.10" departSpeed="0.00" departDelay="0.00" arrival="204.00" arrivalLane="844_1" arrivalPos="190.71" arrivalSpeed="13.59" duration="133.00" routeLength="766.12" waitingTime="44.00" waitingCount="4" stopTime="0.00" timeLoss="77.21" rerouteNo="0" devices="tripinfo_107" vType="DEFAULT_VEHTYPE" speedFactor="1.00" vaporized=""/>
    <tripinfo id="171" depart="114.00" departLane="-712_0" departPos="5.10" departSpeed="0.00" departDelay="1.00" arrival="204.00" arrivalLane="904_0" arrivalPos="201.83" arrivalSpeed="13.39" duration="90.00" routeLength="761.32" waitingTime="18.00" waitingCount="1" stopTime="0.00" timeLoss="34.35" rerouteNo="0" devices="tripinfo_171" vType="DEFAULT_VEHTYPE" speedFactor="1.00" vaporized=""/>
    <tripinfo id="135" depart="84.00" departLane="-734_0" departPos="5.10" departSpeed="0.00" departDelay="1.00" arrival="205.00" arrivalLane="343_0" arrivalPos="162.53" arrivalSpeed="13.24" duration="121.00" routeLength="823.34" waitingTime="27.00" waitingCount="3" stopTime="0.00" timeLoss="61.41" rerouteNo="0" devices="tripinfo_135" vType="DEFAULT_VEHTYPE" speedFactor="1.00" vaporized=""/>
    <tripinfo id="154" depart="102.00" departLane="-175_0" departPos="5.10" departSpeed="0.00" departDelay="0.00" arrival="207.00" arrivalLane="704_0" arrivalPos="174.34" arrivalSpeed="13.15" duration="105.00" routeLength="716.82" waitingTime="30.00" waitingCount="4" stopTime="0.00" timeLoss="52.65" rerouteNo="0" devices="tripinfo_154" vType="DEFAULT_VEHTYPE" speedFactor="1.00" vaporized=""/>
    <tripinfo id="163" depart="108.00" departLane="-712_0" departPos="5.10" departSpeed="0.00" departDelay="0.00" arrival="208.00" arrivalLane="900_0" arrivalPos="221.08" arrivalSpeed="13.06" duration="100.00" routeLength="792.04" waitingTime="9.00" waitingCount="3" stopTime="0.00" timeLoss="42.16" rerouteNo="0" devices="tripinfo_163" vType="DEFAULT_VEHTYPE" speedFactor="1.00" vaporized=""/>
    <tripinfo id="79" depart="52.00" departLane="-686_0" departPos="5.10" departSpeed="0.00" departDelay="0.00" arrival="208.00" arrivalLane="686_0" arrivalPos="134.26" arrivalSpeed="12.87" duration="156.00" routeLength="1091.00" waitingTime="35.00" waitingCount="6" stopTime="0.00" timeLoss="77.10" rerouteNo="0" devices="tripinfo_79" vType="DEFAULT_VEHTYPE" speedFactor="1.00" vaporized=""/>
    <tripinfo id="45" depart="32.00" departLane="-716_0" departPos="5.10" departSpeed="0.00" departDelay="0.00" arrival="209.00" arrivalLane="900_0" arrivalPos="221.08" arrivalSpeed="13.29" duration="177.00" routeLength="782.74" waitingTime="80.00" waitingCount="6" stopTime="0.00" timeLoss="120.48" rerouteNo="0" devices="tripinfo_45" vType="DEFAULT_VEHTYPE" speedFactor="1.00" vaporized=""/>
    <tripinfo id="115" depart="78.00" departLane="-716_0" departPos="5.10" departSpeed="0.00" departDelay="3.00" arrival="210.00" arrivalLane="844_1" arrivalPos="190.71" arrivalSpeed="13.77" duration="132.00" routeLength="756.82" waitingTime="43.00" waitingCount="2" stopTime="0.00" timeLoss="76.93" rerouteNo="0" devices="tripinfo_115" vType="DEFAULT_VEHTYPE" speedFactor="1.00" vaporized=""/>
    <tripinfo id="193" depart="128.00" departLane="-712_0" departPos="5.10" departSpeed="0.00" departDelay="0.00" arrival="212.00" arrivalLane="852_0" arrivalPos="147.75" arrivalSpeed="13.69" duration="84.00" routeLength="727.06" waitingTime="9.00" waitingCount="1" stopTime="0.00" timeLoss="31.02" rerouteNo="0" devices="tripinfo_193" vType="DEFAULT_VEHTYPE" speedFactor="1.00" vaporized=""/>
    <tripinfo id="248" depart="166.00" departLane="-684_0" departPos="5.10" departSpeed="0.00" departDelay="0.00" arrival="213.00" arrivalLane="688_0" arrivalPos="174.96" arrivalSpeed="13.53" duration="47.00" routeLength="353.37" waitingTime="10.00" waitingCount="1" stopTime="0.00" timeLoss="20.83" rerouteNo="0" devices="tripinfo_248" vType="DEFAULT_VEHTYPE" speedFactor="1.00" vaporized=""/>
    <tripinfo id="105" depart="72.00" departLane="-844_0" departPos="5.10" departSpeed="0.00" departDelay="3.00" arrival="214.00" arrivalLane="904_0" arrivalPos="201.83" arrivalSpeed="13.06" duration="142.00" routeLength="670.66" waitingTime="63.00" waitingCount="3" stopTime="0.00" timeLoss="93.58" rerouteNo="0" devices="tripinfo_105" vType="DEFAULT_VEHTYPE" speedFactor="1.00" vaporized=""/>
    <tripinfo id="179" depart="119.00" departLane="-712_0" departPos="5.10" departSpeed="0.00" departDelay="0.00" arrival="214.00" arrivalLane="900_0" arrivalPos="221.08" arrivalSpeed="13.60" duration="95.00" routeLength="792.04" waitingTime="17.00" waitingCount="1" stopTime="0.00" timeLoss="37.06" rerouteNo="0" devices="tripinfo_179" vType="DEFAULT_VEHTYPE" speedFactor="1.00" vaporized=""/>
    <tripinfo id="43" depart="30.00" departLane="-477_0" departPos="5.10" departSpeed="0.00" departDelay="0.00" arrival="214.00" arrivalLane="686_0" arrivalPos="134.26" arrivalSpeed="13.42" duration="184.00" routeLength="1366.29" waitingTime="30.00" waitingCount="6" stopTime="0.00" timeLoss="85.34" rerouteNo="0" devices="tripinfo_43" vType="DEFAULT_VEHTYPE" speedFactor="1.00" vaporized=""/>