<?xml version="1.0" encoding="UTF-8"?>

<!-- generated on 06/21/18 21:44:40 by Eclipse SUMO GUI Version v0_32_0+1428-4ab3f27cbd
<configuration xmlns:xsi="http://www.w3.org/2001/XMLSchema-instance" xsi:noNamespaceSchemaLocation="http://sumo.dlr.de/xsd/sumoConfiguration.xsd">

    <input>
        <net-file value="./city/city.net.xml"/>
        <route-files value="./city/routes.rou.alt.xml"/>
        <additional-files value="./city/e2.add.xml"/>
    </input>

    <output>
        <tripinfo-output value="./city/city_tripinfo-output_AdvancedScheduler.xml"/>
    </output>

    <traci_server>
        <remote-port value="51754"/>
    </traci_server>

</configuration>
-->

<tripinfos xmlns:xsi="http://www.w3.org/2001/XMLSchema-instance" xsi:noNamespaceSchemaLocation="http://sumo.dlr.de/xsd/tripinfo_file.xsd">
    <tripinfo id="3" depart="1.00" departLane="-686_0" departPos="5.10" departSpeed="0.00" departDelay="0.00" arrival="27.00" arrivalLane="684_1" arrivalPos="157.05" arrivalSpeed="12.92" duration="26.00" routeLength="309.08" waitingTime="0.00" waitingCount="0" stopTime="0.00" timeLoss="3.48" rerouteNo="0" devices="tripinfo_3" vType="DEFAULT_VEHTYPE" speedFactor="1.00" vaporized=""/>
    <tripinfo id="25" depart="16.00" departLane="-686_0" departPos="5.10" departSpeed="0.00" departDelay="0.00" arrival="43.00" arrivalLane="704_0" arrivalPos="174.34" arrivalSpeed="12.87" duration="27.00" routeLength="311.25" waitingTime="0.00" waitingCount="0" stopTime="0.00" timeLoss="3.71" rerouteNo="0" devices="tripinfo_25" vType="DEFAULT_VEHTYPE" speedFactor="1.00" vaporized=""/>
    <tripinfo id="20" depart="12.00" departLane="-405_0" departPos="5.10" departSpeed="0.00" departDelay="0.00" arrival="48.00" arrivalLane="904_0" arrivalPos="201.83" arrivalSpeed="12.77" duration="36.00" routeLength="436.32" waitingTime="0.00" waitingCount="0" stopTime="0.00" timeLoss="4.26" rerouteNo="0" devices="tripinfo_20" vType="DEFAULT_VEHTYPE" speedFactor="1.00" vaporized=""/>
    <tripinfo id="30" depart="19.00" departLane="-900_0" departPos="5.10" departSpeed="0.00" departDelay="0.00" arrival="52.00" arrivalLane="852_0" arrivalPos="147.75" arrivalSpeed="13.33" duration="33.00" routeLength="382.60" waitingTime="0.00" waitingCount="0" stopTime="0.00" timeLoss="5.20" rerouteNo="0" devices="tripinfo_30" vType="DEFAULT_VEHTYPE" speedFactor="1.00" vaporized=""/>
    <tripinfo id="18" depart="12.00" departLane="-712_0" departPos="5.10" departSpeed="0.00" departDelay="0.00" arrival="57.00" arrivalLane="405_0" arrivalPos="97.20" arrivalSpeed="13.46" duration="45.00" routeLength="535.05" waitingTime="0.00" waitingCount="0" stopTime="0.00" timeLoss="5.63" rerouteNo="0" devices="tripinfo_18" vType="DEFAULT_VEHTYPE" speedFactor="1.00" vaporized=""/>
    <tripinfo id="2" depart="0.00" departLane="-393_0" departPos="5.10" departSpeed="0.00" departDelay="0.00" arrival="58.00" arrivalLane="904_0" arrivalPos="201.83" arrivalSpeed="13.69" duration="58.00" routeLength="718.05" waitingTime="0.00" waitingCount="0" stopTime="0.00" timeLoss="5.41" rerouteNo="0" devices="tripinfo_2" vType="DEFAULT_VEHTYPE" speedFactor="1.00" vaporized=""/>
    <tripinfo id="56" depart="40.00" departLane="-688_0" departPos="5.10" departSpeed="0.00" departDelay="0.00" arrival="78.00" arrivalLane="684_0" arrivalPos="157.05" arrivalSpeed="13.24" duration="38.00" routeLength="346.21" waitingTime="3.00" waitingCount="1" stopTime="0.00" timeLoss="12.32" rerouteNo="0" devices="tripinfo_56" vType="DEFAULT_VEHTYPE" speedFactor="1.00" vaporized=""/>
    <tripinfo id="13" depart="8.00" departLane="-852_0" departPos="5.10" departSpeed="0.00" departDelay="0.00" arrival="80.00" arrivalLane="343_0" arrivalPos="162.53" arrivalSpeed="12.99" duration="72.00" routeLength="694.19" waitingTime="9.00" waitingCount="1" stopTime="0.00" timeLoss="21.25" rerouteNo="0" devices="tripinfo_13" vType="DEFAULT_VEHTYPE" speedFactor="1.00" vaporized=""/>
    <tripinfo id="60" depart="41.00" departLane="-704_0" departPos="5.10" departSpeed="0.00" departDelay="0.00" arrival="87.00" arrivalLane="698_0" arrivalPos="233.81" arrivalSpeed="13.65" duration="46.00" routeLength="418.79" waitingTime="4.00" waitingCount="2" stopTime="0.00" timeLoss="15.59" rerouteNo="0" devices="tripinfo_60" vType="DEFAULT_VEHTYPE" speedFactor="1.00" vaporized=""/>
    <tripinfo id="36" depart="21.00" departLane="-712_0" departPos="5.10" departSpeed="0.00" departDelay="0.00" arrival="89.00" arrivalLane="716_0" arrivalPos="180.43" arrivalSpeed="13.43" duration="68.00" routeLength="384.97" waitingTime="28.00" waitingCount="1" stopTime="0.00" timeLoss="39.35" rerouteNo="0" devices="tripinfo_36" vType="DEFAULT_VEHTYPE" speedFactor="1.00" vaporized=""/>
    <tripinfo id="15" depart="11.00" departLane="-343_0" departPos="5.10" departSpeed="0.00" departDelay="0.00" arrival="93.00" arrivalLane="852_0" arrivalPos="147.75" arrivalSpeed="12.97" duration="82.00" routeLength="692.23" waitingTime="20.00" waitingCount="2" stopTime="0.00" timeLoss="31.62" rerouteNo="0" devices="tripinfo_15" vType="DEFAULT_VEHTYPE" speedFactor="1.00" vaporized=""/>
    <tripinfo id="69" depart="46.00" departLane="-712_0" departPos="5.10" departSpeed="0.00" departDelay="0.00" arrival="95.00" arrivalLane="716_0" arrivalPos="180.43" arrivalSpeed="13.85" duration="49.00" routeLength="384.97" waitingTime="9.00" waitingCount="1" stopTime="0.00" timeLoss="20.43" rerouteNo="0" devices="tripinfo_69" vType="DEFAULT_VEHTYPE" speedFactor="1.00" vaporized=""/>
    <tripinfo id="45" depart="32.00" departLane="-716_0" departPos="5.10" departSpeed="0.00" departDelay="0.00" arrival="99.00" arrivalLane="900_0" arrivalPos="221.08" arrivalSpeed="12.86" duration="67.00" routeLength="782.74" waitingTime="0.00" waitingCount="0" stopTime="0.00" timeLoss="10.67" rerouteNo="0" devices="tripinfo_45" vType="DEFAULT_VEHTYPE" speedFactor="1.00" vaporized=""/>
    <tripinfo id="16" depart="11.00" departLane="-716_0" departPos="5.10" departSpeed="0.00" departDelay="0.00" arrival="102.00" arrivalLane="477_0" arrivalPos="111.28" arrivalSpeed="12.97" duration="91.00" routeLength="648.69" waitingTime="27.00" waitingCount="2" stopTime="0.00" timeLoss="44.31" rerouteNo="0" devices="tripinfo_16" vType="DEFAULT_VEHTYPE" speedFactor="1.00" vaporized=""/>
    <tripinfo id="98" depart="67.00" departLane="-686_0" departPos="5.10" departSpeed="0.00" departDelay="0.00" arrival="102.00" arrivalLane="698_1" arrivalPos="233.81" arrivalSpeed="12.99" duration="35.00" routeLength="384.84" waitingTime="0.00" waitingCount="0" stopTime="0.00" timeLoss="6.97" rerouteNo="0" devices="tripinfo_98" vType="DEFAULT_VEHTYPE" speedFactor="1.00" vaporized=""/>
    <tripinfo id="54" depart="39.00" departLane="-734_0" departPos="5.10" departSpeed="0.00" departDelay="0.00" arrival="104.00" arrivalLane="477_0" arrivalPos="111.28" arrivalSpeed="13.63" duration="65.00" routeLength="647.91" waitingTime="4.00" waitingCount="2" stopTime="0.00" timeLoss="18.12" rerouteNo="0" devices="tripinfo_54" vType="DEFAULT_VEHTYPE" speedFactor="1.00" vaporized=""/>
    <tripinfo id="35" depart="21.00" departLane="-852_0" departPos="5.10" departSpeed="0.00" departDelay="0.00" arrival="104.00" arrivalLane="904_0" arrivalPos="201.83" arrivalSpeed="13.77" duration="83.00" routeLength="626.18" waitingTime="19.00" waitingCount="3" stopTime="0.00" timeLoss="37.55" rerouteNo="0" devices="tripinfo_35" vType="DEFAULT_VEHTYPE" speedFactor="1.00" vaporized=""/>
    <tripinfo id="92" depart="62.00" departLane="-698_0" departPos="5.10" departSpeed="0.00" departDelay="0.00" arrival="105.00" arrivalLane="686_0" arrivalPos="134.26" arrivalSpeed="13.37" duration="43.00" routeLength="386.41" waitingTime="3.00" waitingCount="1" stopTime="0.00" timeLoss="14.81" rerouteNo="0" devices="tripinfo_92" vType="DEFAULT_VEHTYPE" speedFactor="1.00" vaporized=""/>
    <tripinfo id="28" depart="21.00" departLane="-343_0" departPos="5.10" departSpeed="0.00" departDelay="2.00" arrival="106.00" arrivalLane="175_0" arrivalPos="193.90" arrivalSpeed="13.85" duration="85.00" routeLength="945.04" waitingTime="2.00" waitingCount="1" stopTime="0.00" timeLoss="17.02" rerouteNo="0" devices="tripinfo_28" vType="DEFAULT_VEHTYPE" speedFactor="1.00" vaporized=""/>
    <tripinfo id="37" depart="24.00" departLane="-852_0" departPos="5.10" departSpeed="0.00" departDelay="2.00" arrival="106.00" arrivalLane="904_0" arrivalPos="201.83" arrivalSpeed="13.82" duration="82.00" routeLength="626.18" waitingTime="16.00" waitingCount="2" stopTime="0.00" timeLoss="36.70" rerouteNo="0" devices="tripinfo_37" vType="DEFAULT_VEHTYPE" speedFactor="1.00" vaporized=""/>
    <tripinfo id="19" depart="12.00" departLane="-900_0" departPos="5.10" departSpeed="0.00" departDelay="0.00" arrival="108.00" arrivalLane="343_0" arrivalPos="162.53" arrivalSpeed="13.63" duration="96.00" routeLength="766.06" waitingTime="18.00" waitingCount="2" stopTime="0.00" timeLoss="39.93" rerouteNo="0" devices="tripinfo_19" vType="DEFAULT_VEHTYPE" speedFactor="1.00" vaporized=""/>
    <tripinfo id="124" depart="79.00" departLane="-712_0" departPos="5.10" departSpeed="0.00" departDelay="0.00" arrival="112.00" arrivalLane="716_0" arrivalPos="180.43" arrivalSpeed="12.68" duration="33.00" routeLength="384.97" waitingTime="0.00" waitingCount="0" stopTime="0.00" timeLoss="4.75" rerouteNo="0" devices="tripinfo_124" vType="DEFAULT_VEHTYPE" speedFactor="1.00" vaporized=""/>
    <tripinfo id="65" depart="44.00" departLane="-688_0" departPos="5.10" departSpeed="0.00" departDelay="0.00" arrival="113.00" arrivalLane="175_1" arrivalPos="193.90" arrivalSpeed="13.11" duration="69.00" routeLength="740.27" waitingTime="1.00" waitingCount="1" stopTime="0.00" timeLoss="15.18" rerouteNo="0" devices="tripinfo_65" vType="DEFAULT_VEHTYPE" speedFactor="1.00" vaporized=""/>
    <tripinfo id="129" depart="82.00" departLane="-712_0" departPos="5.10" departSpeed="0.00" departDelay="2.00" arrival="114.00" arrivalLane="734_0" arrivalPos="177.74" arrivalSpeed="13.81" duration="32.00" routeLength="376.71" waitingTime="0.00" waitingCount="0" stopTime="0.00" timeLoss="4.10" rerouteNo="0" devices="tripinfo_129" vType="DEFAULT_VEHTYPE" speedFactor="1.00" vaporized=""/>
    <tripinfo id="134" depart="84.00" departLane="-704_0" departPos="5.10" departSpeed="0.00" departDelay="2.00" arrival="123.00" arrivalLane="684_1" arrivalPos="157.05" arrivalSpeed="13.74" duration="39.00" routeLength="348.43" waitingTime="0.00" waitingCount="0" stopTime="0.00" timeLoss="13.74" rerouteNo="0" devices="tripinfo_134" vType="DEFAULT_VEHTYPE" speedFactor="1.00" vaporized=""/>
    <tripinfo id="84" depart="56.00" departLane="-900_0" departPos="5.10" departSpeed="0.00" departDelay="0.00" arrival="126.00" arrivalLane="904_0" arrivalPos="201.83" arrivalSpeed="13.24" duration="70.00" routeLength="698.05" waitingTime="5.00" waitingCount="1" stopTime="0.00" timeLoss="19.49" rerouteNo="0" devices="tripinfo_84" vType="DEFAULT_VEHTYPE" speedFactor="1.00" vaporized=""/>
    <tripinfo id="11" depart="8.00" departLane="-175_0" departPos="5.10" departSpeed="0.00" departDelay="0.00" arrival="127.00" arrivalLane="393_0" arrivalPos="125.65" arrivalSpeed="13.36" duration="119.00" routeLength="907.78" waitingTime="38.00" waitingCount="2" stopTime="0.00" timeLoss="53.65" rerouteNo="0" devices="tripinfo_11" vType="DEFAULT_VEHTYPE" speedFactor="1.00" vaporized=""/>
    <tripinfo id="9" depart="7.00" departLane="-686_0" departPos="5.10" departSpeed="0.00" departDelay="2.00" arrival="127.00" arrivalLane="686_0" arrivalPos="134.26" arrivalSpeed="12.64" duration="120.00" routeLength="1091.00" waitingTime="18.00" waitingCount="3" stopTime="0.00" timeLoss="41.41" rerouteNo="0" devices="tripinfo_9" vType="DEFAULT_VEHTYPE" speedFactor="1.00" vaporized=""/>
    <tripinfo id="62" depart="42.00" departLane="-175_0" departPos="5.10" departSpeed="0.00" departDelay="0.00" arrival="136.00" arrivalLane="393_0" arrivalPos="125.65" arrivalSpeed="12.77" duration="94.00" routeLength="907.78" waitingTime="17.00" waitingCount="1" stopTime="0.00" timeLoss="27.86" rerouteNo="0" devices="tripinfo_62" vType="DEFAULT_VEHTYPE" speedFactor="1.00" vaporized=""/>
    <tripinfo id="143" depart="91.00" departLane="-716_0" departPos="5.10" departSpeed="0.00" departDelay="0.00" arrival="137.00" arrivalLane="405_0" arrivalPos="97.20" arrivalSpeed="13.59" duration="46.00" routeLength="525.75" waitingTime="0.00" waitingCount="0" stopTime="0.00" timeLoss="7.88" rerouteNo="0" devices="tripinfo_143" vType="DEFAULT_VEHTYPE" speedFactor="1.00" vaporized=""/>
    <tripinfo id="5" depart="4.00" departLane="-686_0" departPos="5.10" departSpeed="0.00" departDelay="1.00" arrival="138.00" arrivalLane="393_0" arrivalPos="125.65" arrivalSpeed="12.60" duration="134.00" routeLength="1200.40" waitingTime="26.00" waitingCount="2" stopTime="0.00" timeLoss="47.16" rerouteNo="0" devices="tripinfo_5" vType="DEFAULT_VEHTYPE" speedFactor="1.00" vaporized=""/>
    <tripinfo id="1" depart="0.00" departLane="-405_0" departPos="5.10" departSpeed="0.00" departDelay="0.00" arrival="140.00" arrivalLane="688_0" arrivalPos="174.96" arrivalSpeed="13.82" duration="140.00" routeLength="1461.88" waitingTime="12.00" waitingCount="2" stopTime="0.00" timeLoss="34.00" rerouteNo="0" devices="tripinfo_1" vType="DEFAULT_VEHTYPE" speedFactor="1.00" vaporized=""/>
    <tripinfo id="170" depart="113.00" departLane="-686_0" departPos="5.10" departSpeed="0.00" departDelay="0.00" arrival="140.00" arrivalLane="704_0" arrivalPos="174.34" arrivalSpeed="13.03" duration="27.00" routeLength="311.25" waitingTime="0.00" waitingCount="0" stopTime="0.00" timeLoss="4.33" rerouteNo="0" devices="tripinfo_170" vType="DEFAULT_VEHTYPE" speedFactor="1.00" vaporized=""/>
    <tripinfo id="38" depart="25.00" departLane="-844_0" departPos="5.10" departSpeed="0.00" departDelay="3.00" arrival="142.00" arrivalLane="435_1" arrivalPos="236.48" arrivalSpeed="13.47" duration="117.00" routeLength="997.89" waitingTime="13.00" waitingCount="2" stopTime="0.00" timeLoss="44.27" rerouteNo="0" devices="tripinfo_38" vType="DEFAULT_VEHTYPE" speedFactor="1.00" vaporized=""/>
    <tripinfo id="64" depart="44.00" departLane="-900_0" departPos="5.10" departSpeed="0.00" departDelay="0.00" arrival="143.00" arrivalLane="393_0" arrivalPos="125.65" arrivalSpeed="13.69" duration="99.00" routeLength="736.74" waitingTime="19.00" waitingCount="3" stopTime="0.00" timeLoss="45.83" rerouteNo="0" devices="tripinfo_64" vType="DEFAULT_VEHTYPE" speedFactor="1.00" vaporized=""/>
    <tripinfo id="105" depart="72.00" departLane="-844_0" departPos="5.10" departSpeed="0.00" departDelay="3.00" arrival="143.00" arrivalLane="904_0" arrivalPos="201.83" arrivalSpeed="13.25" duration="71.00" routeLength="670.66" waitingTime="8.00" waitingCount="1" stopTime="0.00" timeLoss="22.10" rerouteNo="0" devices="tripinfo_105" vType="DEFAULT_VEHTYPE" speedFactor="1.00" vaporized=""/>
    <tripinfo id="66" depart="48.00" departLane="-734_0" departPos="5.10" departSpeed="0.00" departDelay="2.00" arrival="145.00" arrivalLane="852_0" arrivalPos="147.75" arrivalSpeed="13.11" duration="97.00" routeLength="703.78" waitingTime="24.00" waitingCount="3" stopTime="0.00" timeLoss="46.26" rerouteNo="0" devices="tripinfo_66" vType="DEFAULT_VEHTYPE" speedFactor="1.00" vaporized=""/>
    <tripinfo id="74" depart="50.00" departLane="-684_0" departPos="5.10" departSpeed="0.00" departDelay="0.00" arrival="145.00" arrivalLane="686_0" arrivalPos="134.26" arrivalSpeed="12.76" duration="95.00" routeLength="307.06" waitingTime="63.00" waitingCount="1" stopTime="0.00" timeLoss="72.75" rerouteNo="0" devices="tripinfo_74" vType="DEFAULT_VEHTYPE" speedFactor="1.00" vaporized=""/>
    <tripinfo id="161" depart="107.00" departLane="-477_0" departPos="5.10" departSpeed="0.00" departDelay="0.00" arrival="147.00" arrivalLane="435_0" arrivalPos="236.48" arrivalSpeed="13.62" duration="40.00" routeLength="364.93" waitingTime="5.00" waitingCount="1" stopTime="0.00" timeLoss="12.98" rerouteNo="0" devices="tripinfo_161" vType="DEFAULT_VEHTYPE" speedFactor="1.00" vaporized=""/>
    <tripinfo id="120" depart="81.00" departLane="-716_0" departPos="5.10" departSpeed="0.00" departDelay="4.00" arrival="147.00" arrivalLane="904_0" arrivalPos="201.83" arrivalSpeed="13.54" duration="66.00" routeLength="752.02" waitingTime="0.00" waitingCount="0" stopTime="0.00" timeLoss="11.26" rerouteNo="0" devices="tripinfo_120" vType="DEFAULT_VEHTYPE" speedFactor="1.00" vaporized=""/>
    <tripinfo id="125" depart="80.00" departLane="-900_0" departPos="5.10" departSpeed="0.00" departDelay="1.00" arrival="147.00" arrivalLane="405_0" arrivalPos="97.20" arrivalSpeed="13.56" duration="67.00" routeLength="462.63" waitingTime="19.00" waitingCount="1" stopTime="0.00" timeLoss="33.09" rerouteNo="0" devices="tripinfo_125" vType="DEFAULT_VEHTYPE" speedFactor="1.00" vaporized=""/>
    <tripinfo id="119" depart="79.00" departLane="-684_0" departPos="5.10" departSpeed="0.00" departDelay="2.00" arrival="149.00" arrivalLane="688_0" arrivalPos="174.96" arrivalSpeed="13.81" duration="70.00" routeLength="353.37" waitingTime="33.00" waitingCount="1" stopTime="0.00" timeLoss="43.74" rerouteNo="0" devices="tripinfo_119" vType="DEFAULT_VEHTYPE" speedFactor="1.00" vaporized=""/>
    <tripinfo id="73" depart="50.00" departLane="-712_0" departPos="5.10" departSpeed="0.00" departDelay="0.00" arrival="153.00" arrivalLane="435_1" arrivalPos="236.48" arrivalSpeed="12.71" duration="103.00" routeLength="792.15" waitingTime="22.00" waitingCount="2" stopTime="0.00" timeLoss="45.39" rerouteNo="0" devices="tripinfo_73" vType="DEFAULT_VEHTYPE" speedFactor="1.00" vaporized=""/>
    <tripinfo id="187" depart="123.00" departLane="-684_0" departPos="5.10" departSpeed="0.00" departDelay="0.00" arrival="153.00" arrivalLane="704_0" arrivalPos="174.34" arrivalSpeed="13.65" duration="30.00" routeLength="350.40" waitingTime="0.00" waitingCount="0" stopTime="0.00" timeLoss="4.17" rerouteNo="0" devices="tripinfo_187" vType="DEFAULT_VEHTYPE" speedFactor="1.00" vaporized=""/>
    <tripinfo id="95" depart="66.00" departLane="-712_0" departPos="5.10" departSpeed="0.00" departDelay="0.00" arrival="156.00" arrivalLane="844_1" arrivalPos="190.71" arrivalSpeed="13.04" duration="90.00" routeLength="766.12" waitingTime="16.00" waitingCount="2" stopTime="0.00" timeLoss="34.50" rerouteNo="0" devices="tripinfo_95" vType="DEFAULT_VEHTYPE" speedFactor="1.00" vaporized=""/>
    <tripinfo id="42" depart="30.00" departLane="-712_0" departPos="5.10" departSpeed="0.00" departDelay="0.00" arrival="156.00" arrivalLane="900_0" arrivalPos="221.08" arrivalSpeed="13.45" duration="126.00" routeLength="792.04" waitingTime="46.00" waitingCount="4" stopTime="0.00" timeLoss="68.12" rerouteNo="0" devices="tripinfo_42" vType="DEFAULT_VEHTYPE" speedFactor="1.00" vaporized=""/>
    <tripinfo id="61" depart="44.00" departLane="-343_0" departPos="5.10" departSpeed="0.00" departDelay="2.00" arrival="157.00" arrivalLane="175_0" arrivalPos="193.90" arrivalSpeed="13.18" duration="113.00" routeLength="945.04" waitingTime="17.00" waitingCount="3" stopTime="0.00" timeLoss="44.15" rerouteNo="0" devices="tripinfo_61" vType="DEFAULT_VEHTYPE" speedFactor="1.00" vaporized=""/>
    <tripinfo id="107" depart="71.00" departLane="-712_0" departPos="5.10" departSpeed="0.00" departDelay="0.00" arrival="158.00" arrivalLane="844_1" arrivalPos="190.71" arrivalSpeed="12.72" duration="87.00" routeLength="766.12" waitingTime="10.00" waitingCount="2" stopTime="0.00" timeLoss="31.81" rerouteNo="0" devices="tripinfo_107" vType="DEFAULT_VEHTYPE" speedFactor="1.00" vaporized=""/>
    <tripinfo id="192" depart="127.00" departLane="-734_0" departPos="5.10" departSpeed="0.00" departDelay="0.00" arrival="158.00" arrivalLane="716_0" arrivalPos="180.43" arrivalSpeed="12.65" duration="31.00" routeLength="372.08" waitingTime="0.00" waitingCount="0" stopTime="0.00" timeLoss="4.18" rerouteNo="0" devices="tripinfo_192" vType="DEFAULT_VEHTYPE" speedFactor="1.00" vaporized=""/>
    <tripinfo id="43" depart="30.00" departLane="-477_0" departPos="5.10" departSpeed="0.00" departDelay="0.00" arrival="158.00" arrivalLane="686_0" arrivalPos="134.26" arrivalSpeed="12.61" duration="128.00" routeLength="1366.29" waitingTime="10.00" waitingCount="2" stopTime="0.00" timeLoss="29.55" rerouteNo="0" devices="tripinfo_43" vType="DEFAULT_VEHTYPE" speedFactor="1.00" vaporized=""/>
    <tripinfo id="115" depart="78.00" departLane="-716_0" departPos="5.10" departSpeed="0.00" departDelay="3.00" arrival="160.00" arrivalLane="844_1" arrivalPos="190.71" arrivalSpeed="13.82" duration="82.00" routeLength="756.82" waitingTime="3.00" waitingCount="1" stopTime="0.00" timeLoss="27.12" rerouteNo="0" devices="tripinfo_115" vType="DEFAULT_VEHTYPE" speedFactor="1.00" vaporized=""/>
    <tripinfo id="85" depart="59.00" departLane="-844_0" departPos="5.10" departSpeed="0.00" departDelay="3.00" arrival="165.00" arrivalLane="343_0" arrivalPos="162.53" arrivalSpeed="13.25" duration="106.00" routeLength="738.67" waitingTime="23.00" waitingCount="2" stopTime="0.00" timeLoss="52.55" rerouteNo="0" devices="tripinfo_85" vType="DEFAULT_VEHTYPE" speedFactor="1.00" vaporized=""/>
    <tripinfo id="131" depart="81.00" departLane="-734_0" departPos="5.10" departSpeed="0.00" departDelay="0.00" arrival="167.00" arrivalLane="477_0" arrivalPos="111.28" arrivalSpeed="13.06" duration="86.00" routeLength="647.91" waitingTime="15.00" waitingCount="2" stopTime="0.00" timeLoss="38.50" rerouteNo="0" devices="tripinfo_131" vType="DEFAULT_VEHTYPE" speedFactor="1.00" vaporized=""/>
    <tripinfo id="151" depart="97.00" departLane="-686_0" departPos="5.10" departSpeed="0.00" departDelay="0.00" arrival="169.00" arrivalLane="175_1" arrivalPos="193.90" arrivalSpeed="13.75" duration="72.00" routeLength="691.86" waitingTime="4.00" waitingCount="1" stopTime="0.00" timeLoss="21.72" rerouteNo="0" devices="tripinfo_151" vType="DEFAULT_VEHTYPE" speedFactor="1.00" vaporized=""/>
    <tripinfo id="195" depart="129.00" departLane="-688_0" departPos="5.10" departSpeed="0.00" departDelay="0.00" arrival="170.00" arrivalLane="686_0" arrivalPos="134.26" arrivalSpeed="13.31" duration="41.00" routeLength="324.76" waitingTime="6.00" waitingCount="1" stopTime="0.00" timeLoss="17.62" rerouteNo="0" devices="tripinfo_195" vType="DEFAULT_VEHTYPE" speedFactor="1.00" vaporized=""/>
    <tripinfo id="127" depart="84.00" departLane="-716_0" departPos="5.10" departSpeed="0.00" departDelay="4.00" arrival="171.00" arrivalLane="900_0" arrivalPos="221.08" arrivalSpeed="13.17" duration="87.00" routeLength="782.74" waitingTime="1.00" waitingCount="1" stopTime="0.00" timeLoss="29.99" rerouteNo="0" devices="tripinfo_127" vType="DEFAULT_VEHTYPE" speedFactor="1.00" vaporized=""/>
    <tripinfo id="22" depart="15.00" departLane="-900_0" departPos="5.10" departSpeed="0.00" departDelay="0.00" arrival="175.00" arrivalLane="175_0" arrivalPos="193.90" arrivalSpeed="13.48" duration="160.00" routeLength="1368.48" waitingTime="26.00" waitingCount="3" stopTime="0.00" timeLoss="60.84" rerouteNo="0" devices="tripinfo_22" vType="DEFAULT_VEHTYPE" speedFactor="1.00" vaporized=""/>
    <tripinfo id="103" depart="69.00" departLane="-844_0" departPos="5.10" departSpeed="0.00" departDelay="1.00" arrival="176.00" arrivalLane="477_0" arrivalPos="111.28" arrivalSpeed="13.18" duration="107.00" routeLength="855.62" waitingTime="15.00" waitingCount="2" stopTime="0.00" timeLoss="44.93" rerouteNo="0" devices="tripinfo_103" vType="DEFAULT_VEHTYPE" speedFactor="1.00" vaporized=""/>
    <tripinfo id="199" depart="133.00" departLane="-688_0" departPos="5.10" departSpeed="0.00" departDelay="0.00" arrival="176.00" arrivalLane="704_0" arrivalPos="174.34" arrivalSpeed="13.65" duration="43.00" routeLength="363.07" waitingTime="4.00" waitingCount="1" stopTime="0.00" timeLoss="16.18" rerouteNo="0" devices="tripinfo_199" vType="DEFAULT_VEHTYPE" speedFactor="1.00" vaporized=""/>
    <tripinfo id="109" depart="75.00" departLane="-844_0" departPos="5.10" departSpeed="0.00" departDelay="3.00" arrival="178.00" arrivalLane="477_0" arrivalPos="111.28" arrivalSpeed="13.23" duration="103.00" routeLength="855.62" waitingTime="14.00" waitingCount="2" stopTime="0.00" timeLoss="40.80" rerouteNo="0" devices="tripinfo_109" vType="DEFAULT_VEHTYPE" speedFactor="1.00" vaporized=""/>
    <tripinfo id="67" depart="46.00" departLane="-435_0" departPos="5.10" departSpeed="0.00" departDelay="0.00" arrival="178.00" arrivalLane="716_0" arrivalPos="180.43" arrivalSpeed="12.88" duration="132.00" routeLength="758.01" waitingTime="61.00" waitingCount="1" stopTime="0.00" timeLoss="77.40" rerouteNo="0" devices="tripinfo_67" vType="DEFAULT_VEHTYPE" speedFactor="1.00" vaporized=""/>
    <tripinfo id="27" depart="18.00" departLane="-343_0" departPos="5.10" departSpeed="0.00" departDelay="0.00" arrival="179.00" arrivalLane="734_0" arrivalPos="177.74" arrivalSpeed="12.61" duration="161.00" routeLength="818.01" waitingTime="86.00" waitingCount="2" stopTime="0.00" timeLoss="101.93" rerouteNo="0" devices="tripinfo_27" vType="DEFAULT_VEHTYPE" speedFactor="1.00" vaporized=""/>
    <tripinfo id="172" depart="116.00" departLane="-852_0" departPos="5.10" departSpeed="0.00" departDelay="3.00" arrival="180.00" arrivalLane="900_0" arrivalPos="221.08" arrivalSpeed="13.08" duration="64.00" routeLength="386.95" waitingTime="25.00" waitingCount="1" stopTime="0.00" timeLoss="36.01" rerouteNo="0" devices="tripinfo_172" vType="DEFAULT_VEHTYPE" speedFactor="1.00" vaporized=""/>
    <tripinfo id="33" depart="20.00" departLane="-734_0" departPos="5.10" departSpeed="0.00" departDelay="0.00" arrival="182.00" arrivalLane="175_0" arrivalPos="193.90" arrivalSpeed="12.71" duration="162.00" routeLength="1425.76" waitingTime="22.00" waitingCount="4" stopTime="0.00" timeLoss="58.97" rerouteNo="0" devices="tripinfo_33" vType="DEFAULT_VEHTYPE" speedFactor="1.00" vaporized=""/>
    <tripinfo id="93" depart="62.00" departLane="-477_0" departPos="5.10" departSpeed="0.00" departDelay="0.00" arrival="182.00" arrivalLane="734_0" arrivalPos="177.74" arrivalSpeed="13.12" duration="120.00" routeLength="660.10" waitingTime="55.00" waitingCount="2" stopTime="0.00" timeLoss="71.80" rerouteNo="0" devices="tripinfo_93" vType="DEFAULT_VEHTYPE" speedFactor="1.00" vaporized=""/>
    <tripinfo id="110" depart="72.00" departLane="-477_0" departPos="5.10" departSpeed="0.00" departDelay="0.00" arrival="183.00" arrivalLane="734_0" arrivalPos="177.74" arrivalSpeed="13.20" duration="111.00" routeLength="660.10" waitingTime="50.00" waitingCount="1" stopTime="0.00" timeLoss="63.44" rerouteNo="0" devices="tripinfo_110" vType="DEFAULT_VEHTYPE" speedFactor="1.00" vaporized=""/>
    <tripinfo id="122" depart="80.00" departLane="-844_0" departPos="5.10" departSpeed="0.00" departDelay="3.00" arrival="185.00" arrivalLane="393_0" arrivalPos="125.65" arrivalSpeed="13.78" duration="105.00" routeLength="709.35" waitingTime="22.00" waitingCount="3" stopTime="0.00" timeLoss="53.88" rerouteNo="0" devices="tripinfo_122" vType="DEFAULT_VEHTYPE" speedFactor="1.00" vaporized=""/>
    <tripinfo id="81" depart="55.00" departLane="-435_0" departPos="5.10" departSpeed="0.00" departDelay="1.00" arrival="185.00" arrivalLane="405_0" arrivalPos="97.20" arrivalSpeed="13.15" duration="130.00" routeLength="764.52" waitingTime="44.00" waitingCount="3" stopTime="0.00" timeLoss="74.14" rerouteNo="0" devices="tripinfo_81" vType="DEFAULT_VEHTYPE" speedFactor="1.00" vaporized=""/>
    <tripinfo id="24" depart="16.00" departLane="-435_0" departPos="5.10" departSpeed="0.00" departDelay="0.00" arrival="186.00" arrivalLane="904_0" arrivalPos="201.83" arrivalSpeed="13.60" duration="170.00" routeLength="996.75" waitingTime="81.00" waitingCount="1" stopTime="0.00" timeLoss="97.36" rerouteNo="0" devices="tripinfo_24" vType="DEFAULT_VEHTYPE" speedFactor="1.00" vaporized=""/>
    <tripinfo id="39" depart="26.00" departLane="-393_0" departPos="5.10" departSpeed="0.00" departDelay="0.00" arrival="188.00" arrivalLane="712_0" arrivalPos="195.35" arrivalSpeed="12.91" duration="162.00" routeLength="814.17" waitingTime="76.00" waitingCount="3" stopTime="0.00" timeLoss="102.76" rerouteNo="0" devices="tripinfo_39" vType="DEFAULT_VEHTYPE" speedFactor="1.00" vaporized=""/>
    <tripinfo id="59" depart="41.00" departLane="-343_0" departPos="5.10" departSpeed="0.00" departDelay="0.00" arrival="189.00" arrivalLane="904_0" arrivalPos="201.83" arrivalSpeed="13.11" duration="148.00" routeLength="738.57" waitingTime="71.00" waitingCount="4" stopTime="0.00" timeLoss="94.27" rerouteNo="0" devices="tripinfo_59" vType="DEFAULT_VEHTYPE" speedFactor="1.00" vaporized=""/>
    <tripinfo id="21" depart="13.00" departLane="-852_0" departPos="5.10" departSpeed="0.00" departDelay="0.00" arrival="190.00" arrivalLane="716_0" arrivalPos="180.43" arrivalSpeed="13.09" duration="177.00" routeLength="716.35" waitingTime="106.00" waitingCount="3" stopTime="0.00" timeLoss="125.01" rerouteNo="0" devices="tripinfo_21" vType="DEFAULT_VEHTYPE" speedFactor="1.00" vaporized=""/>
    <tripinfo id="96" depart="66.00" departLane="-844_0" departPos="5.10" departSpeed="0.00" departDelay="0.00" arrival="190.00" arrivalLane="734_0" arrivalPos="177.74" arrivalSpeed="13.83" duration="124.00" routeLength="757.77" waitingTime="45.00" waitingCount="3" stopTime="0.00" timeLoss="68.89" rerouteNo="0" devices="tripinfo_96" vType="DEFAULT_VEHTYPE" speedFactor="1.00" vaporized=""/>
    <tripinfo id="108" depart="74.00" departLane="-712_0" departPos="5.10" departSpeed="0.00" departDelay="3.00" arrival="192.00" arrivalLane="393_0" arrivalPos="125.65" arrivalSpeed="12.87" duration="118.00" routeLength="817.30" waitingTime="28.00" waitingCount="3" stopTime="0.00" timeLoss="58.70" rerouteNo="0" devices="tripinfo_108" vType="DEFAULT_VEHTYPE" speedFactor="1.00" vaporized=""/>