<?xml version="1.0" encoding="UTF-8"?>

<!-- generated on 06/17/18 09:55:42 by Eclipse SUMO GUI Version v0_32_0+1428-4ab3f27cbd
<configuration xmlns:xsi="http://www.w3.org/2001/XMLSchema-instance" xsi:noNamespaceSchemaLocation="http://sumo.dlr.de/xsd/sumoConfiguration.xsd">

    <input>
        <net-file value="./random/random.net.xml"/>
        <route-files value="./random/routes.rou.alt.xml"/>
        <additional-files value="./random/e2.add.xml"/>
    </input>

    <output>
        <tripinfo-output value="./random/random_tripinfo-output_MaxOccupancyScheduler.xml"/>
    </output>

    <traci_server>
        <remote-port value="53303"/>
    </traci_server>

</configuration>
-->

<tripinfos xmlns:xsi="http://www.w3.org/2001/XMLSchema-instance" xsi:noNamespaceSchemaLocation="http://sumo.dlr.de/xsd/tripinfo_file.xsd">
    <tripinfo id="15" depart="15.00" departLane="-621_0" departPos="5.10" departSpeed="0.00" departDelay="0.00" arrival="59.00" arrivalLane="639_0" arrivalPos="193.24" arrivalSpeed="12.79" duration="44.00" routeLength="296.47" waitingTime="12.00" waitingCount="1" stopTime="0.00" timeLoss="22.36" rerouteNo="0" devices="tripinfo_15" vType="DEFAULT_VEHTYPE" speedFactor="1.00" vaporized=""/>
    <tripinfo id="2" depart="2.00" departLane="-621_0" departPos="5.10" departSpeed="0.00" departDelay="0.00" arrival="70.00" arrivalLane="330_1" arrivalPos="208.13" arrivalSpeed="13.69" duration="68.00" routeLength="790.50" waitingTime="1.00" waitingCount="1" stopTime="0.00" timeLoss="10.92" rerouteNo="0" devices="tripinfo_2" vType="DEFAULT_VEHTYPE" speedFactor="1.00" vaporized=""/>
    <tripinfo id="8" depart="8.00" departLane="-621_0" departPos="5.10" departSpeed="0.00" departDelay="0.00" arrival="73.00" arrivalLane="330_1" arrivalPos="208.13" arrivalSpeed="13.33" duration="65.00" routeLength="790.50" waitingTime="0.00" waitingCount="0" stopTime="0.00" timeLoss="7.27" rerouteNo="0" devices="tripinfo_8" vType="DEFAULT_VEHTYPE" speedFactor="1.00" vaporized=""/>
    <tripinfo id="19" depart="19.00" departLane="-621_0" departPos="5.10" departSpeed="0.00" departDelay="0.00" arrival="76.00" arrivalLane="625_0" arrivalPos="139.12" arrivalSpeed="12.62" duration="57.00" routeLength="249.61" waitingTime="26.00" waitingCount="2" stopTime="0.00" timeLoss="38.47" rerouteNo="0" devices="tripinfo_19" vType="DEFAULT_VEHTYPE" speedFactor="1.00" vaporized=""/>
    <tripinfo id="20" depart="20.00" departLane="-533_0" departPos="5.10" departSpeed="0.00" departDelay="0.00" arrival="89.00" arrivalLane="496_1" arrivalPos="115.96" arrivalSpeed="13.78" duration="69.00" routeLength="864.61" waitingTime="0.00" waitingCount="0" stopTime="0.00" timeLoss="6.64" rerouteNo="0" devices="tripinfo_20" vType="DEFAULT_VEHTYPE" speedFactor="1.00" vaporized=""/>
    <tripinfo id="17" depart="17.00" departLane="-533_0" departPos="5.10" departSpeed="0.00" departDelay="0.00" arrival="90.00" arrivalLane="618_0" arrivalPos="144.96" arrivalSpeed="13.46" duration="73.00" routeLength="859.33" waitingTime="1.00" waitingCount="1" stopTime="0.00" timeLoss="10.95" rerouteNo="0" devices="tripinfo_17" vType="DEFAULT_VEHTYPE" speedFactor="1.00" vaporized=""/>
    <tripinfo id="10" depart="12.00" departLane="-11_0" departPos="5.10" departSpeed="0.00" departDelay="2.00" arrival="91.00" arrivalLane="625_0" arrivalPos="139.12" arrivalSpeed="13.83" duration="79.00" routeLength="1004.48" waitingTime="0.00" waitingCount="0" stopTime="0.00" timeLoss="6.54" rerouteNo="0" devices="tripinfo_10" vType="DEFAULT_VEHTYPE" speedFactor="1.00" vaporized=""/>
    <tripinfo id="7" depart="9.00" departLane="-11_0" departPos="5.10" departSpeed="0.00" departDelay="2.00" arrival="98.00" arrivalLane="642_0" arrivalPos="220.71" arrivalSpeed="13.03" duration="89.00" routeLength="1122.23" waitingTime="0.00" waitingCount="0" stopTime="0.00" timeLoss="7.91" rerouteNo="0" devices="tripinfo_7" vType="DEFAULT_VEHTYPE" speedFactor="1.00" vaporized=""/>
    <tripinfo id="3" depart="3.00" departLane="-623_0" departPos="5.10" departSpeed="0.00" departDelay="0.00" arrival="99.00" arrivalLane="11_1" arrivalPos="159.22" arrivalSpeed="13.06" duration="96.00" routeLength="1042.17" waitingTime="2.00" waitingCount="2" stopTime="0.00" timeLoss="20.29" rerouteNo="0" devices="tripinfo_3" vType="DEFAULT_VEHTYPE" speedFactor="1.00" vaporized=""/>
    <tripinfo id="1" depart="1.00" departLane="-623_0" departPos="5.10" departSpeed="0.00" departDelay="0.00" arrival="101.00" arrivalLane="597_0" arrivalPos="96.87" arrivalSpeed="12.82" duration="100.00" routeLength="1145.94" waitingTime="3.00" waitingCount="1" stopTime="0.00" timeLoss="17.53" rerouteNo="0" devices="tripinfo_1" vType="DEFAULT_VEHTYPE" speedFactor="1.00" vaporized=""/>
    <tripinfo id="6" depart="6.00" departLane="-11_0" departPos="5.10" departSpeed="0.00" departDelay="0.00" arrival="103.00" arrivalLane="496_1" arrivalPos="115.96" arrivalSpeed="13.10" duration="97.00" routeLength="1126.99" waitingTime="0.00" waitingCount="0" stopTime="0.00" timeLoss="15.11" rerouteNo="0" devices="tripinfo_6" vType="DEFAULT_VEHTYPE" speedFactor="1.00" vaporized=""/>
    <tripinfo id="30" depart="30.00" departLane="-330_0" departPos="5.10" departSpeed="0.00" departDelay="0.00" arrival="109.00" arrivalLane="639_1" arrivalPos="193.24" arrivalSpeed="13.06" duration="79.00" routeLength="866.29" waitingTime="0.00" waitingCount="0" stopTime="0.00" timeLoss="16.62" rerouteNo="0" devices="tripinfo_30" vType="DEFAULT_VEHTYPE" speedFactor="1.00" vaporized=""/>
    <tripinfo id="11" depart="11.00" departLane="-621_0" departPos="5.10" departSpeed="0.00" departDelay="0.00" arrival="110.00" arrivalLane="11_1" arrivalPos="159.22" arrivalSpeed="12.86" duration="99.00" routeLength="972.17" waitingTime="17.00" waitingCount="1" stopTime="0.00" timeLoss="28.86" rerouteNo="0" devices="tripinfo_11" vType="DEFAULT_VEHTYPE" speedFactor="1.00" vaporized=""/>
    <tripinfo id="37" depart="37.00" departLane="-11_0" departPos="5.10" departSpeed="0.00" departDelay="0.00" arrival="115.00" arrivalLane="621_0" arrivalPos="97.07" arrivalSpeed="13.32" duration="78.00" routeLength="964.56" waitingTime="0.00" waitingCount="0" stopTime="0.00" timeLoss="7.68" rerouteNo="0" devices="tripinfo_37" vType="DEFAULT_VEHTYPE" speedFactor="1.00" vaporized=""/>
    <tripinfo id="18" depart="18.00" departLane="-11_0" departPos="5.10" departSpeed="0.00" departDelay="0.00" arrival="117.00" arrivalLane="597_0" arrivalPos="96.87" arrivalSpeed="13.73" duration="99.00" routeLength="1146.88" waitingTime="2.00" waitingCount="1" stopTime="0.00" timeLoss="16.19" rerouteNo="0" devices="tripinfo_18" vType="DEFAULT_VEHTYPE" speedFactor="1.00" vaporized=""/>
    <tripinfo id="24" depart="24.00" departLane="-612_0" departPos="5.10" departSpeed="0.00" departDelay="0.00" arrival="121.00" arrivalLane="11_0" arrivalPos="159.22" arrivalSpeed="13.48" duration="97.00" routeLength="1233.50" waitingTime="0.00" waitingCount="0" stopTime="0.00" timeLoss="7.51" rerouteNo="0" devices="tripinfo_24" vType="DEFAULT_VEHTYPE" speedFactor="1.00" vaporized=""/>
    <tripinfo id="4" depart="4.00" departLane="-496_0" departPos="5.10" departSpeed="0.00" departDelay="0.00" arrival="123.00" arrivalLane="612_0" arrivalPos="186.44" arrivalSpeed="13.30" duration="119.00" routeLength="1376.98" waitingTime="7.00" waitingCount="1" stopTime="0.00" timeLoss="19.23" rerouteNo="0" devices="tripinfo_4" vType="DEFAULT_VEHTYPE" speedFactor="1.00" vaporized=""/>
    <tripinfo id="28" depart="28.00" departLane="-623_0" departPos="5.10" departSpeed="0.00" departDelay="0.00" arrival="125.00" arrivalLane="11_1" arrivalPos="159.22" arrivalSpeed="13.19" duration="97.00" routeLength="1042.17" waitingTime="9.00" waitingCount="1" stopTime="0.00" timeLoss="21.63" rerouteNo="0" devices="tripinfo_28" vType="DEFAULT_VEHTYPE" speedFactor="1.00" vaporized=""/>
    <tripinfo id="29" depart="29.00" departLane="-496_0" departPos="5.10" departSpeed="0.00" departDelay="0.00" arrival="127.00" arrivalLane="569_0" arrivalPos="185.22" arrivalSpeed="13.17" duration="98.00" routeLength="911.65" waitingTime="7.00" waitingCount="3" stopTime="0.00" timeLoss="31.68" rerouteNo="0" devices="tripinfo_29" vType="DEFAULT_VEHTYPE" speedFactor="1.00" vaporized=""/>
    <tripinfo id="21" depart="21.00" departLane="-618_0" departPos="5.10" departSpeed="0.00" departDelay="0.00" arrival="128.00" arrivalLane="496_1" arrivalPos="115.96" arrivalSpeed="12.89" duration="107.00" routeLength="1232.03" waitingTime="2.00" waitingCount="1" stopTime="0.00" timeLoss="17.88" rerouteNo="0" devices="tripinfo_21" vType="DEFAULT_VEHTYPE" speedFactor="1.00" vaporized=""/>
    <tripinfo id="12" depart="12.00" departLane="-597_0" departPos="5.10" departSpeed="0.00" departDelay="0.00" arrival="130.00" arrivalLane="597_0" arrivalPos="96.87" arrivalSpeed="13.74" duration="118.00" routeLength="862.68" waitingTime="42.00" waitingCount="1" stopTime="0.00" timeLoss="55.66" rerouteNo="0" devices="tripinfo_12" vType="DEFAULT_VEHTYPE" speedFactor="1.00" vaporized=""/>
    <tripinfo id="25" depart="25.00" departLane="-569_0" departPos="5.10" departSpeed="0.00" departDelay="0.00" arrival="132.00" arrivalLane="569_0" arrivalPos="185.22" arrivalSpeed="13.52" duration="107.00" routeLength="1257.83" waitingTime="1.00" waitingCount="1" stopTime="0.00" timeLoss="16.14" rerouteNo="0" devices="tripinfo_25" vType="DEFAULT_VEHTYPE" speedFactor="1.00" vaporized=""/>
    <tripinfo id="67" depart="67.00" departLane="-496_0" departPos="5.10" departSpeed="0.00" departDelay="0.00" arrival="135.00" arrivalLane="597_1" arrivalPos="96.87" arrivalSpeed="12.98" duration="68.00" routeLength="632.27" waitingTime="10.00" waitingCount="1" stopTime="0.00" timeLoss="22.45" rerouteNo="0" devices="tripinfo_67" vType="DEFAULT_VEHTYPE" speedFactor="1.00" vaporized=""/>
    <tripinfo id="16" depart="16.00" departLane="-597_0" departPos="5.10" departSpeed="0.00" departDelay="0.00" arrival="135.00" arrivalLane="597_0" arrivalPos="96.87" arrivalSpeed="13.57" duration="119.00" routeLength="862.68" waitingTime="41.00" waitingCount="1" stopTime="0.00" timeLoss="56.64" rerouteNo="0" devices="tripinfo_16" vType="DEFAULT_VEHTYPE" speedFactor="1.00" vaporized=""/>
    <tripinfo id="85" depart="85.00" departLane="-496_0" departPos="5.10" departSpeed="0.00" departDelay="0.00" arrival="139.00" arrivalLane="597_1" arrivalPos="96.87" arrivalSpeed="13.00" duration="54.00" routeLength="632.27" waitingTime="0.00" waitingCount="0" stopTime="0.00" timeLoss="8.51" rerouteNo="0" devices="tripinfo_85" vType="DEFAULT_VEHTYPE" speedFactor="1.00" vaporized=""/>
    <tripinfo id="87" depart="87.00" departLane="-618_0" departPos="5.10" departSpeed="0.00" departDelay="0.00" arrival="139.00" arrivalLane="612_0" arrivalPos="186.44" arrivalSpeed="13.89" duration="52.00" routeLength="648.35" waitingTime="0.00" waitingCount="0" stopTime="0.00" timeLoss="5.20" rerouteNo="0" devices="tripinfo_87" vType="DEFAULT_VEHTYPE" speedFactor="1.00" vaporized=""/>
    <tripinfo id="98" depart="99.00" departLane="-621_0" departPos="5.10" departSpeed="0.00" departDelay="1.00" arrival="140.00" arrivalLane="623_0" arrivalPos="168.03" arrivalSpeed="13.30" duration="41.00" routeLength="284.37" waitingTime="11.00" waitingCount="1" stopTime="0.00" timeLoss="20.36" rerouteNo="0" devices="tripinfo_98" vType="DEFAULT_VEHTYPE" speedFactor="1.00" vaporized=""/>
    <tripinfo id="9" depart="9.00" departLane="-612_0" departPos="5.10" departSpeed="0.00" departDelay="0.00" arrival="140.00" arrivalLane="625_0" arrivalPos="139.12" arrivalSpeed="12.76" duration="131.00" routeLength="1648.63" waitingTime="0.00" waitingCount="0" stopTime="0.00" timeLoss="11.64" rerouteNo="0" devices="tripinfo_9" vType="DEFAULT_VEHTYPE" speedFactor="1.00" vaporized=""/>
    <tripinfo id="44" depart="44.00" departLane="-11_0" departPos="5.10" departSpeed="0.00" departDelay="0.00" arrival="141.00" arrivalLane="11_1" arrivalPos="159.22" arrivalSpeed="13.01" duration="97.00" routeLength="1087.26" waitingTime="1.00" waitingCount="1" stopTime="0.00" timeLoss="18.55" rerouteNo="0" devices="tripinfo_44" vType="DEFAULT_VEHTYPE" speedFactor="1.00" vaporized=""/>
    <tripinfo id="104" depart="105.00" departLane="-621_0" departPos="5.10" departSpeed="0.00" departDelay="1.00" arrival="144.00" arrivalLane="639_0" arrivalPos="193.24" arrivalSpeed="13.61" duration="39.00" routeLength="296.47" waitingTime="7.00" waitingCount="1" stopTime="0.00" timeLoss="16.75" rerouteNo="0" devices="tripinfo_104" vType="DEFAULT_VEHTYPE" speedFactor="1.00" vaporized=""/>
    <tripinfo id="66" depart="66.00" departLane="-639_0" departPos="5.10" departSpeed="0.00" departDelay="0.00" arrival="145.00" arrivalLane="621_1" arrivalPos="97.07" arrivalSpeed="13.61" duration="79.00" routeLength="307.46" waitingTime="47.00" waitingCount="1" stopTime="0.00" timeLoss="56.84" rerouteNo="0" devices="tripinfo_66" vType="DEFAULT_VEHTYPE" speedFactor="1.00" vaporized=""/>
    <tripinfo id="115" depart="115.00" departLane="-621_0" departPos="5.10" departSpeed="0.00" departDelay="0.00" arrival="145.00" arrivalLane="623_0" arrivalPos="168.03" arrivalSpeed="13.35" duration="30.00" routeLength="284.37" waitingTime="0.00" waitingCount="0" stopTime="0.00" timeLoss="9.04" rerouteNo="0" devices="tripinfo_115" vType="DEFAULT_VEHTYPE" speedFactor="1.00" vaporized=""/>
    <tripinfo id="26" depart="26.00" departLane="-597_0" departPos="5.10" departSpeed="0.00" departDelay="0.00" arrival="147.00" arrivalLane="597_0" arrivalPos="96.87" arrivalSpeed="13.89" duration="121.00" routeLength="862.68" waitingTime="38.00" waitingCount="3" stopTime="0.00" timeLoss="58.11" rerouteNo="0" devices="tripinfo_26" vType="DEFAULT_VEHTYPE" speedFactor="1.00" vaporized=""/>
    <tripinfo id="110" depart="110.00" departLane="-639_0" departPos="5.10" departSpeed="0.00" departDelay="0.00" arrival="148.00" arrivalLane="621_1" arrivalPos="97.07" arrivalSpeed="13.04" duration="38.00" routeLength="307.46" waitingTime="4.00" waitingCount="1" stopTime="0.00" timeLoss="15.14" rerouteNo="0" devices="tripinfo_110" vType="DEFAULT_VEHTYPE" speedFactor="1.00" vaporized=""/>
    <tripinfo id="38" depart="38.00" departLane="-642_0" departPos="5.10" departSpeed="0.00" departDelay="0.00" arrival="152.00" arrivalLane="330_0" arrivalPos="208.13" arrivalSpeed="13.84" duration="114.00" routeLength="667.09" waitingTime="54.00" waitingCount="1" stopTime="0.00" timeLoss="65.11" rerouteNo="0" devices="tripinfo_38" vType="DEFAULT_VEHTYPE" speedFactor="1.00" vaporized=""/>
    <tripinfo id="0" depart="0.00" departLane="-330_0" departPos="5.10" departSpeed="0.00" departDelay="0.00" arrival="156.00" arrivalLane="612_1" arrivalPos="186.44" arrivalSpeed="13.36" duration="156.00" routeLength="1746.16" waitingTime="9.00" waitingCount="1" stopTime="0.00" timeLoss="30.61" rerouteNo="0" devices="tripinfo_0" vType="DEFAULT_VEHTYPE" speedFactor="1.00" vaporized=""/>
    <tripinfo id="5" depart="5.00" departLane="-621_0" departPos="5.10" departSpeed="0.00" departDelay="0.00" arrival="156.00" arrivalLane="612_0" arrivalPos="186.44" arrivalSpeed="13.27" duration="151.00" routeLength="1647.79" waitingTime="10.00" waitingCount="2" stopTime="0.00" timeLoss="32.05" rerouteNo="0" devices="tripinfo_5" vType="DEFAULT_VEHTYPE" speedFactor="1.00" vaporized=""/>
    <tripinfo id="74" depart="74.00" departLane="-642_0" departPos="5.10" departSpeed="0.00" departDelay="0.00" arrival="156.00" arrivalLane="330_0" arrivalPos="208.13" arrivalSpeed="12.61" duration="82.00" routeLength="667.09" waitingTime="20.00" waitingCount="1" stopTime="0.00" timeLoss="33.22" rerouteNo="0" devices="tripinfo_74" vType="DEFAULT_VEHTYPE" speedFactor="1.00" vaporized=""/>
    <tripinfo id="70" depart="70.00" departLane="-597_0" departPos="5.10" departSpeed="0.00" departDelay="0.00" arrival="158.00" arrivalLane="496_0" arrivalPos="115.96" arrivalSpeed="13.34" duration="88.00" routeLength="621.31" waitingTime="28.00" waitingCount="2" stopTime="0.00" timeLoss="42.97" rerouteNo="0" devices="tripinfo_70" vType="DEFAULT_VEHTYPE" speedFactor="1.00" vaporized=""/>
    <tripinfo id="111" depart="111.00" departLane="-625_0" departPos="5.10" departSpeed="0.00" departDelay="0.00" arrival="162.00" arrivalLane="623_0" arrivalPos="168.03" arrivalSpeed="13.64" duration="51.00" routeLength="330.38" waitingTime="11.00" waitingCount="2" stopTime="0.00" timeLoss="26.53" rerouteNo="0" devices="tripinfo_111" vType="DEFAULT_VEHTYPE" speedFactor="1.00" vaporized=""/>
    <tripinfo id="13" depart="13.00" departLane="-618_0" departPos="5.10" departSpeed="0.00" departDelay="0.00" arrival="163.00" arrivalLane="597_0" arrivalPos="96.87" arrivalSpeed="13.52" duration="150.00" routeLength="1580.94" waitingTime="13.00" waitingCount="1" stopTime="0.00" timeLoss="35.44" rerouteNo="0" devices="tripinfo_13" vType="DEFAULT_VEHTYPE" speedFactor="1.00" vaporized=""/>
    <tripinfo id="42" depart="42.00" departLane="-597_0" departPos="5.10" departSpeed="0.00" departDelay="0.00" arrival="164.00" arrivalLane="533_0" arrivalPos="115.64" arrivalSpeed="12.61" duration="122.00" routeLength="1221.55" waitingTime="20.00" waitingCount="1" stopTime="0.00" timeLoss="33.75" rerouteNo="0" devices="tripinfo_42" vType="DEFAULT_VEHTYPE" speedFactor="1.00" vaporized=""/>
    <tripinfo id="47" depart="47.00" departLane="-597_0" departPos="5.10" departSpeed="0.00" departDelay="0.00" arrival="165.00" arrivalLane="330_1" arrivalPos="208.13" arrivalSpeed="13.70" duration="118.00" routeLength="1224.57" waitingTime="10.00" waitingCount="2" stopTime="0.00" timeLoss="29.68" rerouteNo="0" devices="tripinfo_47" vType="DEFAULT_VEHTYPE" speedFactor="1.00" vaporized=""/>
    <tripinfo id="57" depart="57.00" departLane="-496_0" departPos="5.10" departSpeed="0.00" departDelay="0.00" arrival="166.00" arrivalLane="533_0" arrivalPos="115.64" arrivalSpeed="13.15" duration="109.00" routeLength="848.62" waitingTime="32.00" waitingCount="2" stopTime="0.00" timeLoss="47.52" rerouteNo="0" devices="tripinfo_57" vType="DEFAULT_VEHTYPE" speedFactor="1.00" vaporized=""/>
    <tripinfo id="100" depart="102.00" departLane="-621_0" departPos="5.10" departSpeed="0.00" departDelay="2.00" arrival="166.00" arrivalLane="625_0" arrivalPos="139.12" arrivalSpeed="13.27" duration="64.00" routeLength="249.61" waitingTime="26.00" waitingCount="2" stopTime="0.00" timeLoss="45.29" rerouteNo="0" devices="tripinfo_100" vType="DEFAULT_VEHTYPE" speedFactor="1.00" vaporized=""/>
    <tripinfo id="14" depart="14.00" departLane="-623_0" departPos="5.10" departSpeed="0.00" departDelay="0.00" arrival="167.00" arrivalLane="496_1" arrivalPos="115.96" arrivalSpeed="13.82" duration="153.00" routeLength="1364.88" waitingTime="26.00" waitingCount="2" stopTime="0.00" timeLoss="54.06" rerouteNo="0" devices="tripinfo_14" vType="DEFAULT_VEHTYPE" speedFactor="1.00" vaporized=""/>
    <tripinfo id="22" depart="23.00" departLane="-533_0" departPos="5.10" departSpeed="0.00" departDelay="1.00" arrival="168.00" arrivalLane="330_1" arrivalPos="208.13" arrivalSpeed="12.93" duration="145.00" routeLength="1627.50" waitingTime="5.00" waitingCount="1" stopTime="0.00" timeLoss="27.18" rerouteNo="0" devices="tripinfo_22" vType="DEFAULT_VEHTYPE" speedFactor="1.00" vaporized=""/>
    <tripinfo id="63" depart="63.00" departLane="-11_0" departPos="5.10" departSpeed="0.00" departDelay="0.00" arrival="168.00" arrivalLane="623_0" arrivalPos="168.03" arrivalSpeed="13.58" duration="105.00" routeLength="1043.61" waitingTime="10.00" waitingCount="2" stopTime="0.00" timeLoss="29.10" rerouteNo="0" devices="tripinfo_63" vType="DEFAULT_VEHTYPE" speedFactor="1.00" vaporized=""/>
    <tripinfo id="27" depart="27.00" departLane="-639_0" departPos="5.10" departSpeed="0.00" departDelay="0.00" arrival="169.00" arrivalLane="496_1" arrivalPos="115.96" arrivalSpeed="12.70" duration="142.00" routeLength="1391.89" waitingTime="9.00" waitingCount="1" stopTime="0.00" timeLoss="41.10" rerouteNo="0" devices="tripinfo_27" vType="DEFAULT_VEHTYPE" speedFactor="1.00" vaporized=""/>
    <tripinfo id="35" depart="37.00" departLane="-625_0" departPos="5.10" departSpeed="0.00" departDelay="2.00" arrival="173.00" arrivalLane="496_1" arrivalPos="115.96" arrivalSpeed="13.82" duration="136.00" routeLength="1337.10" waitingTime="11.00" waitingCount="2" stopTime="0.00" timeLoss="39.72" rerouteNo="0" devices="tripinfo_35" vType="DEFAULT_VEHTYPE" speedFactor="1.00" vaporized=""/>
    <tripinfo id="60" depart="61.00" departLane="-618_0" departPos="5.10" departSpeed="0.00" departDelay="1.00" arrival="176.00" arrivalLane="496_1" arrivalPos="115.96" arrivalSpeed="13.60" duration="115.00" routeLength="1232.03" waitingTime="5.00" waitingCount="2" stopTime="0.00" timeLoss="25.67" rerouteNo="0" devices="tripinfo_60" vType="DEFAULT_VEHTYPE" speedFactor="1.00" vaporized=""/>
    <tripinfo id="59" depart="60.00" departLane="-496_0" departPos="5.10" departSpeed="0.00" departDelay="1.00" arrival="179.00" arrivalLane="496_1" arrivalPos="115.96" arrivalSpeed="13.19" duration="119.00" routeLength="1111.64" waitingTime="19.00" waitingCount="1" stopTime="0.00" timeLoss="38.35" rerouteNo="0" devices="tripinfo_59" vType="DEFAULT_VEHTYPE" speedFactor="1.00" vaporized=""/>
    <tripinfo id="33" depart="34.00" departLane="-625_0" departPos="5.10" departSpeed="0.00" departDelay="1.00" arrival="182.00" arrivalLane="618_0" arrivalPos="144.96" arrivalSpeed="12.91" duration="148.00" routeLength="1611.22" waitingTime="4.00" waitingCount="1" stopTime="0.00" timeLoss="31.96" rerouteNo="0" devices="tripinfo_33" vType="DEFAULT_VEHTYPE" speedFactor="1.00" vaporized=""/>
    <tripinfo id="32" depart="32.00" departLane="-11_0" departPos="5.10" departSpeed="0.00" departDelay="0.00" arrival="185.00" arrivalLane="533_0" arrivalPos="115.64" arrivalSpeed="13.04" duration="153.00" routeLength="1233.20" waitingTime="35.00" waitingCount="4" stopTime="0.00" timeLoss="64.27" rerouteNo="0" devices="tripinfo_32" vType="DEFAULT_VEHTYPE" speedFactor="1.00" vaporized=""/>
    <tripinfo id="124" depart="126.00" departLane="-496_0" departPos="5.10" departSpeed="0.00" departDelay="2.00" arrival="189.00" arrivalLane="597_1" arrivalPos="96.87" arrivalSpeed="13.20" duration="63.00" routeLength="632.27" waitingTime="4.00" waitingCount="1" stopTime="0.00" timeLoss="17.15" rerouteNo="0" devices="tripinfo_124" vType="DEFAULT_VEHTYPE" speedFactor="1.00" vaporized=""/>
    <tripinfo id="43" depart="43.00" departLane="-623_0" departPos="5.10" departSpeed="0.00" departDelay="0.00" arrival="190.00" arrivalLane="618_0" arrivalPos="144.96" arrivalSpeed="13.27" duration="147.00" routeLength="1639.00" waitingTime="3.00" waitingCount="2" stopTime="0.00" timeLoss="28.28" rerouteNo="0" devices="tripinfo_43" vType="DEFAULT_VEHTYPE" speedFactor="1.00" vaporized=""/>
    <tripinfo id="55" depart="55.00" departLane="-330_0" departPos="5.10" departSpeed="0.00" departDelay="0.00" arrival="192.00" arrivalLane="597_0" arrivalPos="96.87" arrivalSpeed="13.81" duration="137.00" routeLength="1211.69" waitingTime="33.00" waitingCount="2" stopTime="0.00" timeLoss="49.80" rerouteNo="0" devices="tripinfo_55" vType="DEFAULT_VEHTYPE" speedFactor="1.00" vaporized=""/>
    <tripinfo id="46" depart="46.00" departLane="-639_0" departPos="5.10" departSpeed="0.00" departDelay="0.00" arrival="193.00" arrivalLane="618_0" arrivalPos="144.96" arrivalSpeed="13.38" duration="147.00" routeLength="1666.01" waitingTime="0.00" waitingCount="0" stopTime="0.00" timeLoss="26.36" rerouteNo="0" devices="tripinfo_46" vType="DEFAULT_VEHTYPE" speedFactor="1.00" vaporized=""/>
    <tripinfo id="114" depart="114.00" departLane="-533_0" departPos="5.10" departSpeed="0.00" departDelay="0.00" arrival="194.00" arrivalLane="618_0" arrivalPos="144.96" arrivalSpeed="13.78" duration="80.00" routeLength="859.33" waitingTime="4.00" waitingCount="1" stopTime="0.00" timeLoss="18.13" rerouteNo="0" devices="tripinfo_114" vType="DEFAULT_VEHTYPE" speedFactor="1.00" vaporized=""/>
    <tripinfo id="126" depart="126.00" departLane="-11_0" departPos="5.10" departSpeed="0.00" departDelay="0.00" arrival="196.00" arrivalLane="330_1" arrivalPos="208.13" arrivalSpeed="12.96" duration="70.00" routeLength="867.99" waitingTime="0.00" waitingCount="0" stopTime="0.00" timeLoss="6.71" rerouteNo="0" devices="tripinfo_126" vType="DEFAULT_VEHTYPE" speedFactor="1.00" vaporized=""/>
    <tripinfo id="64" depart="64.00" departLane="-642_0" departPos="5.10" departSpeed="0.00" departDelay="0.00" arrival="197.00" arrivalLane="11_1" arrivalPos="159.22" arrivalSpeed="13.03" duration="133.00" routeLength="1142.35" waitingTime="26.00" waitingCount="2" stopTime="0.00" timeLoss="50.26" rerouteNo="0" devices="tripinfo_64" vType="DEFAULT_VEHTYPE" speedFactor="1.00" vaporized=""/>
    <tripinfo id="73" depart="73.00" departLane="-612_0" departPos="5.10" departSpeed="0.00" departDelay="0.00" arrival="205.00" arrivalLane="597_0" arrivalPos="96.87" arrivalSpeed="12.80" duration="132.00" routeLength="1624.47" waitingTime="0.00" waitingCount="0" stopTime="0.00" timeLoss="14.39" rerouteNo="0" devices="tripinfo_73" vType="DEFAULT_VEHTYPE" speedFactor="1.00" vaporized=""/>
    <tripinfo id="23" depart="23.00" departLane="-496_0" departPos="5.10" departSpeed="0.00" departDelay="0.00" arrival="205.00" arrivalLane="330_1" arrivalPos="208.13" arrivalSpeed="12.85" duration="182.00" routeLength="1439.00" waitingTime="50.00" waitingCount="4" stopTime="0.00" timeLoss="77.94" rerouteNo="0" devices="tripinfo_23" vType="DEFAULT_VEHTYPE" speedFactor="1.00" vaporized=""/>
    <tripinfo id="95" depart="95.00" departLane="-597_0" departPos="5.10" departSpeed="0.00" departDelay="0.00" arrival="207.00" arrivalLane="330_1" arrivalPos="208.13" arrivalSpeed="12.98" duration="112.00" routeLength="1224.57" waitingTime="5.00" waitingCount="2" stopTime="0.00" timeLoss="23.18" rerouteNo="0" devices="tripinfo_95" vType="DEFAULT_VEHTYPE" speedFactor="1.00" vaporized=""/>
    <tripinfo id="69" depart="69.00" departLane="-639_0" departPos="5.10" departSpeed="0.00" departDelay="0.00" arrival="210.00" arrivalLane="642_0" arrivalPos="220.71" arrivalSpeed="12.96" duration="141.00" routeLength="1141.75" waitingTime="45.00" waitingCount="1" stopTime="0.00" timeLoss="57.94" rerouteNo="0" devices="tripinfo_69" vType="DEFAULT_VEHTYPE" speedFactor="1.00" vaporized=""/>
    <tripinfo id="31" depart="31.00" departLane="-625_0" departPos="5.10" departSpeed="0.00" departDelay="0.00" arrival="211.00" arrivalLane="533_0" arrivalPos="115.64" arrivalSpeed="13.68" duration="180.00" routeLength="1536.95" waitingTime="28.00" waitingCount="2" stopTime="0.00" timeLoss="68.65" rerouteNo="0" devices="tripinfo_31" vType="DEFAULT_VEHTYPE" speedFactor="1.00" vaporized=""/>
    <tripinfo id="102" depart="102.00" departLane="-496_0" departPos="5.10" departSpeed="0.00" departDelay="0.00" arrival="212.00" arrivalLane="533_0" arrivalPos="115.64" arrivalSpeed="13.65" duration="110.00" routeLength="848.62" waitingTime="22.00" waitingCount="3" stopTime="0.00" timeLoss="48.84" rerouteNo="0" devices="tripinfo_102" vType="DEFAULT_VEHTYPE" speedFactor="1.00" vaporized=""/>
    <tripinfo id="49" depart="49.00" departLane="-642_0" departPos="5.10" departSpeed="0.00" departDelay="0.00" arrival="213.00" arrivalLane="621_0" arrivalPos="97.07" arrivalSpeed="13.07" duration="164.00" routeLength="1026.69" waitingTime="60.00" waitingCount="4" stopTime="0.00" timeLoss="89.28" rerouteNo="0" devices="tripinfo_49" vType="DEFAULT_VEHTYPE" speedFactor="1.00" vaporized=""/>
    <tripinfo id="88" depart="88.00" departLane="-496_0" departPos="5.10" departSpeed="0.00" departDelay="0.00" arrival="213.00" arrivalLane="569_0" arrivalPos="185.22" arrivalSpeed="13.51" duration="125.00" routeLength="911.65" waitingTime="32.00" waitingCount="3" stopTime="0.00" timeLoss="59.16" rerouteNo="0" devices="tripinfo_88" vType="DEFAULT_VEHTYPE" speedFactor="1.00" vaporized=""/>
    <tripinfo id="118" depart="118.00" departLane="-11_0" departPos="5.10" departSpeed="0.00" departDelay="0.00" arrival="214.00" arrivalLane="618_0" arrivalPos="144.96" arrivalSpeed="13.61" duration="96.00" routeLength="1203.86" waitingTime="0.00" waitingCount="0" stopTime="0.00" timeLoss="8.87" rerouteNo="0" devices="tripinfo_118" vType="DEFAULT_VEHTYPE" speedFactor="1.00" vaporized=""/>
    <tripinfo id="48" depart="49.00" departLane="-597_0" departPos="5.10" departSpeed="0.00" departDelay="1.00" arrival="217.00" arrivalLane="618_0" arrivalPos="144.96" arrivalSpeed="13.17" duration="168.00" routeLength="1571.49" waitingTime="39.00" waitingCount="1" stopTime="0.00" timeLoss="54.91" rerouteNo="0" devices="tripinfo_48" vType="DEFAULT_VEHTYPE" speedFactor="1.00" vaporized=""/>
    <tripinfo id="34" depart="34.00" departLane="-642_0" departPos="5.10" departSpeed="0.00" departDelay="0.00" arrival="217.00" arrivalLane="623_0" arrivalPos="168.03" arrivalSpeed="13.35" duration="183.00" routeLength="1105.74" waitingTime="79.00" waitingCount="3" stopTime="0.00" timeLoss="102.65" rerouteNo="0" devices="tripinfo_34" vType="DEFAULT_VEHTYPE" speedFactor="1.00" vaporized=""/>
    <tripinfo id="138" depart="138.00" departLane="-618_0" departPos="5.10" departSpeed="0.00" departDelay="0.00" arrival="219.00" arrivalLane="533_0" arrivalPos="115.64" arrivalSpeed="12.74" duration="81.00" routeLength="875.69" waitingTime="3.00" waitingCount="1" stopTime="0.00" timeLoss="17.86" rerouteNo="0" devices="tripinfo_138" vType="DEFAULT_VEHTYPE" speedFactor="1.00" vaporized=""/>
    <tripinfo id="92" depart="93.00" departLane="-618_0" departPos="5.10" departSpeed="0.00" departDelay="1.00" arrival="221.00" arrivalLane="496_1" arrivalPos="115.96" arrivalSpeed="13.54" duration="128.00" routeLength="1232.03" waitingTime="24.00" waitingCount="1" stopTime="0.00" timeLoss="39.14" rerouteNo="0" devices="tripinfo_92" vType="DEFAULT_VEHTYPE" speedFactor="1.00" vaporized=""/>