<?xml version="1.0" encoding="UTF-8"?>

<!-- generated on 06/21/18 19:28:12 by Eclipse SUMO GUI Version v0_32_0+1428-4ab3f27cbd
<configuration xmlns:xsi="http://www.w3.org/2001/XMLSchema-instance" xsi:noNamespaceSchemaLocation="http://sumo.dlr.de/xsd/sumoConfiguration.xsd">

    <input>
        <net-file value="./random/random.net.xml"/>
        <route-files value="./random/routes.rou.alt.xml"/>
        <additional-files value="./random/e2.add.xml"/>
    </input>

    <output>
        <tripinfo-output value="./random/random_tripinfo-output_StaticScheduler.xml"/>
    </output>

    <traci_server>
        <remote-port value="51333"/>
    </traci_server>

</configuration>
-->

<tripinfos xmlns:xsi="http://www.w3.org/2001/XMLSchema-instance" xsi:noNamespaceSchemaLocation="http://sumo.dlr.de/xsd/tripinfo_file.xsd">
    <tripinfo id="3" depart="5.00" departLane="-361_0" departPos="5.10" departSpeed="0.00" departDelay="2.00" arrival="69.00" arrivalLane="219_0" arrivalPos="208.01" arrivalSpeed="13.51" duration="64.00" routeLength="590.83" waitingTime="1.00" waitingCount="1" stopTime="0.00" timeLoss="20.45" rerouteNo="0" devices="tripinfo_3" vType="DEFAULT_VEHTYPE" speedFactor="1.00" vaporized=""/>
    <tripinfo id="4" depart="3.00" departLane="-567_0" departPos="5.10" departSpeed="0.00" departDelay="0.00" arrival="76.00" arrivalLane="232_0" arrivalPos="116.43" arrivalSpeed="12.84" duration="73.00" routeLength="657.63" waitingTime="13.00" waitingCount="1" stopTime="0.00" timeLoss="25.68" rerouteNo="0" devices="tripinfo_4" vType="DEFAULT_VEHTYPE" speedFactor="1.00" vaporized=""/>
    <tripinfo id="8" depart="9.00" departLane="-501_0" departPos="5.10" departSpeed="0.00" departDelay="2.00" arrival="82.00" arrivalLane="232_0" arrivalPos="116.43" arrivalSpeed="13.80" duration="73.00" routeLength="610.02" waitingTime="17.00" waitingCount="1" stopTime="0.00" timeLoss="28.70" rerouteNo="0" devices="tripinfo_8" vType="DEFAULT_VEHTYPE" speedFactor="1.00" vaporized=""/>
    <tripinfo id="6" depart="5.00" departLane="-690_0" departPos="5.10" departSpeed="0.00" departDelay="0.00" arrival="103.00" arrivalLane="361_0" arrivalPos="104.93" arrivalSpeed="13.89" duration="98.00" routeLength="575.10" waitingTime="45.00" waitingCount="1" stopTime="0.00" timeLoss="55.97" rerouteNo="0" devices="tripinfo_6" vType="DEFAULT_VEHTYPE" speedFactor="1.00" vaporized=""/>
    <tripinfo id="5" depart="8.00" departLane="-361_0" departPos="5.10" departSpeed="0.00" departDelay="4.00" arrival="106.00" arrivalLane="501_0" arrivalPos="122.00" arrivalSpeed="13.60" duration="98.00" routeLength="749.66" waitingTime="22.00" waitingCount="3" stopTime="0.00" timeLoss="43.35" rerouteNo="0" devices="tripinfo_5" vType="DEFAULT_VEHTYPE" speedFactor="1.00" vaporized=""/>
    <tripinfo id="1" depart="2.00" departLane="-361_0" departPos="5.10" departSpeed="0.00" departDelay="0.00" arrival="109.00" arrivalLane="567_1" arrivalPos="185.95" arrivalSpeed="12.72" duration="107.00" routeLength="802.65" waitingTime="33.00" waitingCount="2" stopTime="0.00" timeLoss="47.90" rerouteNo="0" devices="tripinfo_1" vType="DEFAULT_VEHTYPE" speedFactor="1.00" vaporized=""/>
    <tripinfo id="0" depart="1.00" departLane="-690_0" departPos="5.10" departSpeed="0.00" departDelay="0.00" arrival="118.00" arrivalLane="232_1" arrivalPos="116.43" arrivalSpeed="13.12" duration="117.00" routeLength="801.23" waitingTime="47.00" waitingCount="1" stopTime="0.00" timeLoss="58.72" rerouteNo="0" devices="tripinfo_0" vType="DEFAULT_VEHTYPE" speedFactor="1.00" vaporized=""/>
    <tripinfo id="7" depart="6.00" departLane="-501_0" departPos="5.10" departSpeed="0.00" departDelay="0.00" arrival="131.00" arrivalLane="690_1" arrivalPos="149.96" arrivalSpeed="13.27" duration="125.00" routeLength="1147.02" waitingTime="21.00" waitingCount="2" stopTime="0.00" timeLoss="41.01" rerouteNo="0" devices="tripinfo_7" vType="DEFAULT_VEHTYPE" speedFactor="1.00" vaporized=""/>
    <tripinfo id="2" depart="2.00" departLane="-232_0" departPos="5.10" departSpeed="0.00" departDelay="0.00" arrival="247.00" arrivalLane="232_4" arrivalPos="116.43" arrivalSpeed="12.65" duration="245.00" routeLength="1518.39" waitingTime="101.00" waitingCount="4" stopTime="0.00" timeLoss="135.12" rerouteNo="0" devices="tripinfo_2" vType="DEFAULT_VEHTYPE" speedFactor="1.00" vaporized=""/>
</tripinfos>
