<?xml version="1.0" encoding="UTF-8"?>

<!-- generated on 06/15/18 18:56:27 by Eclipse SUMO GUI Version v0_32_0+1428-4ab3f27cbd
<configuration xmlns:xsi="http://www.w3.org/2001/XMLSchema-instance" xsi:noNamespaceSchemaLocation="http://sumo.dlr.de/xsd/sumoConfiguration.xsd">

    <input>
        <net-file value="./random/random.net.xml"/>
        <route-files value="./random/routes.rou.alt.xml"/>
        <additional-files value="./random/e2.add.xml"/>
    </input>

    <output>
        <tripinfo-output value="./random/random_tripinfo-output_StaticScheduler.xml"/>
    </output>

    <traci_server>
        <remote-port value="53149"/>
    </traci_server>

</configuration>
-->

<tripinfos xmlns:xsi="http://www.w3.org/2001/XMLSchema-instance" xsi:noNamespaceSchemaLocation="http://sumo.dlr.de/xsd/tripinfo_file.xsd">
    <tripinfo id="16" depart="17.00" departLane="-621_0" departPos="5.10" departSpeed="0.00" departDelay="1.00" arrival="53.00" arrivalLane="625_0" arrivalPos="139.12" arrivalSpeed="13.64" duration="36.00" routeLength="249.61" waitingTime="6.00" waitingCount="1" stopTime="0.00" timeLoss="17.65" rerouteNo="0" devices="tripinfo_16" vType="DEFAULT_VEHTYPE" speedFactor="1.00" vaporized=""/>
    <tripinfo id="37" depart="37.00" departLane="-621_0" departPos="5.10" departSpeed="0.00" departDelay="0.00" arrival="62.00" arrivalLane="623_0" arrivalPos="168.03" arrivalSpeed="12.96" duration="25.00" routeLength="284.37" waitingTime="0.00" waitingCount="0" stopTime="0.00" timeLoss="3.88" rerouteNo="0" devices="tripinfo_37" vType="DEFAULT_VEHTYPE" speedFactor="1.00" vaporized=""/>
    <tripinfo id="43" depart="45.00" departLane="-569_0" departPos="5.10" departSpeed="0.00" departDelay="2.00" arrival="71.00" arrivalLane="533_0" arrivalPos="115.64" arrivalSpeed="13.80" duration="26.00" routeLength="301.47" waitingTime="0.00" waitingCount="0" stopTime="0.00" timeLoss="4.12" rerouteNo="0" devices="tripinfo_43" vType="DEFAULT_VEHTYPE" speedFactor="1.00" vaporized=""/>
    <tripinfo id="12" depart="14.00" departLane="-623_0" departPos="5.10" departSpeed="0.00" departDelay="2.00" arrival="81.00" arrivalLane="625_0" arrivalPos="139.12" arrivalSpeed="13.10" duration="67.00" routeLength="329.04" waitingTime="30.00" waitingCount="1" stopTime="0.00" timeLoss="43.27" rerouteNo="0" devices="tripinfo_12" vType="DEFAULT_VEHTYPE" speedFactor="1.00" vaporized=""/>
    <tripinfo id="55" depart="55.00" departLane="-623_0" departPos="5.10" departSpeed="0.00" departDelay="0.00" arrival="91.00" arrivalLane="639_2" arrivalPos="193.24" arrivalSpeed="12.92" duration="36.00" routeLength="379.87" waitingTime="0.00" waitingCount="0" stopTime="0.00" timeLoss="8.31" rerouteNo="0" devices="tripinfo_55" vType="DEFAULT_VEHTYPE" speedFactor="1.00" vaporized=""/>
    <tripinfo id="49" depart="49.00" departLane="-618_0" departPos="5.10" departSpeed="0.00" departDelay="0.00" arrival="101.00" arrivalLane="612_0" arrivalPos="186.44" arrivalSpeed="13.13" duration="52.00" routeLength="648.35" waitingTime="0.00" waitingCount="0" stopTime="0.00" timeLoss="5.24" rerouteNo="0" devices="tripinfo_49" vType="DEFAULT_VEHTYPE" speedFactor="1.00" vaporized=""/>
    <tripinfo id="9" depart="10.00" departLane="-496_0" departPos="5.10" departSpeed="0.00" departDelay="1.00" arrival="107.00" arrivalLane="569_0" arrivalPos="185.22" arrivalSpeed="13.65" duration="97.00" routeLength="911.65" waitingTime="11.00" waitingCount="2" stopTime="0.00" timeLoss="31.32" rerouteNo="0" devices="tripinfo_9" vType="DEFAULT_VEHTYPE" speedFactor="1.00" vaporized=""/>
    <tripinfo id="63" depart="63.00" departLane="-639_0" departPos="5.10" departSpeed="0.00" departDelay="0.00" arrival="108.00" arrivalLane="623_0" arrivalPos="168.03" arrivalSpeed="12.67" duration="45.00" routeLength="362.44" waitingTime="7.00" waitingCount="1" stopTime="0.00" timeLoss="18.26" rerouteNo="0" devices="tripinfo_63" vType="DEFAULT_VEHTYPE" speedFactor="1.00" vaporized=""/>
    <tripinfo id="11" depart="11.00" departLane="-623_0" departPos="5.10" departSpeed="0.00" departDelay="0.00" arrival="120.00" arrivalLane="330_1" arrivalPos="208.13" arrivalSpeed="13.75" duration="109.00" routeLength="860.50" waitingTime="33.00" waitingCount="2" stopTime="0.00" timeLoss="46.72" rerouteNo="0" devices="tripinfo_11" vType="DEFAULT_VEHTYPE" speedFactor="1.00" vaporized=""/>
    <tripinfo id="89" depart="89.00" departLane="-621_0" departPos="5.10" departSpeed="0.00" departDelay="0.00" arrival="122.00" arrivalLane="639_0" arrivalPos="193.24" arrivalSpeed="13.08" duration="33.00" routeLength="296.47" waitingTime="1.00" waitingCount="1" stopTime="0.00" timeLoss="11.15" rerouteNo="0" devices="tripinfo_89" vType="DEFAULT_VEHTYPE" speedFactor="1.00" vaporized=""/>
    <tripinfo id="28" depart="28.00" departLane="-625_0" departPos="5.10" departSpeed="0.00" departDelay="0.00" arrival="123.00" arrivalLane="623_0" arrivalPos="168.03" arrivalSpeed="12.74" duration="95.00" routeLength="330.38" waitingTime="59.00" waitingCount="2" stopTime="0.00" timeLoss="70.67" rerouteNo="0" devices="tripinfo_28" vType="DEFAULT_VEHTYPE" speedFactor="1.00" vaporized=""/>
    <tripinfo id="2" depart="2.00" departLane="-623_0" departPos="5.10" departSpeed="0.00" departDelay="0.00" arrival="130.00" arrivalLane="11_1" arrivalPos="159.22" arrivalSpeed="13.18" duration="128.00" routeLength="1042.17" waitingTime="36.00" waitingCount="1" stopTime="0.00" timeLoss="52.24" rerouteNo="0" devices="tripinfo_2" vType="DEFAULT_VEHTYPE" speedFactor="1.00" vaporized=""/>
    <tripinfo id="17" depart="17.00" departLane="-642_0" departPos="5.10" departSpeed="0.00" departDelay="0.00" arrival="134.00" arrivalLane="621_0" arrivalPos="97.07" arrivalSpeed="13.53" duration="117.00" routeLength="1026.69" waitingTime="26.00" waitingCount="2" stopTime="0.00" timeLoss="42.60" rerouteNo="0" devices="tripinfo_17" vType="DEFAULT_VEHTYPE" speedFactor="1.00" vaporized=""/>
    <tripinfo id="27" depart="27.00" departLane="-496_0" departPos="5.10" departSpeed="0.00" departDelay="0.00" arrival="135.00" arrivalLane="569_0" arrivalPos="185.22" arrivalSpeed="12.95" duration="108.00" routeLength="911.65" waitingTime="27.00" waitingCount="2" stopTime="0.00" timeLoss="42.32" rerouteNo="0" devices="tripinfo_27" vType="DEFAULT_VEHTYPE" speedFactor="1.00" vaporized=""/>
    <tripinfo id="104" depart="104.00" departLane="-625_0" departPos="5.10" departSpeed="0.00" departDelay="0.00" arrival="138.00" arrivalLane="621_0" arrivalPos="97.07" arrivalSpeed="13.81" duration="34.00" routeLength="237.27" waitingTime="4.00" waitingCount="2" stopTime="0.00" timeLoss="16.46" rerouteNo="0" devices="tripinfo_104" vType="DEFAULT_VEHTYPE" speedFactor="1.00" vaporized=""/>
    <tripinfo id="22" depart="22.00" departLane="-621_0" departPos="5.10" departSpeed="0.00" departDelay="0.00" arrival="139.00" arrivalLane="642_0" arrivalPos="220.71" arrivalSpeed="13.39" duration="117.00" routeLength="1044.74" waitingTime="12.00" waitingCount="3" stopTime="0.00" timeLoss="41.33" rerouteNo="0" devices="tripinfo_22" vType="DEFAULT_VEHTYPE" speedFactor="1.00" vaporized=""/>
    <tripinfo id="60" depart="60.00" departLane="-330_0" departPos="5.10" departSpeed="0.00" departDelay="0.00" arrival="144.00" arrivalLane="621_0" arrivalPos="97.07" arrivalSpeed="12.68" duration="84.00" routeLength="762.15" waitingTime="1.00" waitingCount="1" stopTime="0.00" timeLoss="28.43" rerouteNo="0" devices="tripinfo_60" vType="DEFAULT_VEHTYPE" speedFactor="1.00" vaporized=""/>
    <tripinfo id="26" depart="26.00" departLane="-642_0" departPos="5.10" departSpeed="0.00" departDelay="0.00" arrival="148.00" arrivalLane="639_1" arrivalPos="193.24" arrivalSpeed="12.98" duration="122.00" routeLength="1130.83" waitingTime="20.00" waitingCount="3" stopTime="0.00" timeLoss="40.35" rerouteNo="0" devices="tripinfo_26" vType="DEFAULT_VEHTYPE" speedFactor="1.00" vaporized=""/>
    <tripinfo id="41" depart="41.00" departLane="-642_0" departPos="5.10" departSpeed="0.00" departDelay="0.00" arrival="148.00" arrivalLane="623_0" arrivalPos="168.03" arrivalSpeed="12.86" duration="107.00" routeLength="1105.74" waitingTime="4.00" waitingCount="2" stopTime="0.00" timeLoss="26.70" rerouteNo="0" devices="tripinfo_41" vType="DEFAULT_VEHTYPE" speedFactor="1.00" vaporized=""/>
    <tripinfo id="7" depart="7.00" departLane="-496_0" departPos="5.10" departSpeed="0.00" departDelay="0.00" arrival="151.00" arrivalLane="621_0" arrivalPos="97.07" arrivalSpeed="13.22" duration="144.00" routeLength="1290.86" waitingTime="20.00" waitingCount="4" stopTime="0.00" timeLoss="50.81" rerouteNo="0" devices="tripinfo_7" vType="DEFAULT_VEHTYPE" speedFactor="1.00" vaporized=""/>
    <tripinfo id="44" depart="44.00" departLane="-496_0" departPos="5.10" departSpeed="0.00" departDelay="0.00" arrival="151.00" arrivalLane="597_1" arrivalPos="96.87" arrivalSpeed="13.11" duration="107.00" routeLength="632.27" waitingTime="44.00" waitingCount="2" stopTime="0.00" timeLoss="60.85" rerouteNo="0" devices="tripinfo_44" vType="DEFAULT_VEHTYPE" speedFactor="1.00" vaporized=""/>
    <tripinfo id="125" depart="125.00" departLane="-621_0" departPos="5.10" departSpeed="0.00" departDelay="0.00" arrival="151.00" arrivalLane="639_0" arrivalPos="193.24" arrivalSpeed="13.82" duration="26.00" routeLength="296.47" waitingTime="0.00" waitingCount="0" stopTime="0.00" timeLoss="4.06" rerouteNo="0" devices="tripinfo_125" vType="DEFAULT_VEHTYPE" speedFactor="1.00" vaporized=""/>
    <tripinfo id="4" depart="4.00" departLane="-569_0" departPos="5.10" departSpeed="0.00" departDelay="0.00" arrival="152.00" arrivalLane="597_0" arrivalPos="96.87" arrivalSpeed="12.71" duration="148.00" routeLength="1302.86" waitingTime="34.00" waitingCount="2" stopTime="0.00" timeLoss="53.60" rerouteNo="0" devices="tripinfo_4" vType="DEFAULT_VEHTYPE" speedFactor="1.00" vaporized=""/>
    <tripinfo id="3" depart="3.00" departLane="-621_0" departPos="5.10" departSpeed="0.00" departDelay="0.00" arrival="161.00" arrivalLane="597_0" arrivalPos="96.87" arrivalSpeed="13.47" duration="158.00" routeLength="1075.94" waitingTime="52.00" waitingCount="4" stopTime="0.00" timeLoss="79.82" rerouteNo="0" devices="tripinfo_3" vType="DEFAULT_VEHTYPE" speedFactor="1.00" vaporized=""/>
    <tripinfo id="15" depart="15.00" departLane="-621_0" departPos="5.10" departSpeed="0.00" departDelay="0.00" arrival="163.00" arrivalLane="597_0" arrivalPos="96.87" arrivalSpeed="13.88" duration="148.00" routeLength="1075.94" waitingTime="39.00" waitingCount="4" stopTime="0.00" timeLoss="69.91" rerouteNo="0" devices="tripinfo_15" vType="DEFAULT_VEHTYPE" speedFactor="1.00" vaporized=""/>
    <tripinfo id="39" depart="40.00" departLane="-621_0" departPos="5.10" departSpeed="0.00" departDelay="1.00" arrival="165.00" arrivalLane="597_0" arrivalPos="96.87" arrivalSpeed="13.19" duration="125.00" routeLength="1075.94" waitingTime="18.00" waitingCount="3" stopTime="0.00" timeLoss="47.21" rerouteNo="0" devices="tripinfo_39" vType="DEFAULT_VEHTYPE" speedFactor="1.00" vaporized=""/>
    <tripinfo id="5" depart="5.00" departLane="-623_0" departPos="5.10" departSpeed="0.00" departDelay="0.00" arrival="167.00" arrivalLane="597_0" arrivalPos="96.87" arrivalSpeed="13.69" duration="162.00" routeLength="1145.94" waitingTime="49.00" waitingCount="3" stopTime="0.00" timeLoss="79.31" rerouteNo="0" devices="tripinfo_5" vType="DEFAULT_VEHTYPE" speedFactor="1.00" vaporized=""/>
    <tripinfo id="24" depart="24.00" departLane="-330_0" departPos="5.10" departSpeed="0.00" departDelay="0.00" arrival="169.00" arrivalLane="597_0" arrivalPos="96.87" arrivalSpeed="13.38" duration="145.00" routeLength="1211.69" waitingTime="30.00" waitingCount="3" stopTime="0.00" timeLoss="57.34" rerouteNo="0" devices="tripinfo_24" vType="DEFAULT_VEHTYPE" speedFactor="1.00" vaporized=""/>
    <tripinfo id="80" depart="81.00" departLane="-623_0" departPos="5.10" departSpeed="0.00" departDelay="1.00" arrival="171.00" arrivalLane="625_0" arrivalPos="139.12" arrivalSpeed="13.38" duration="90.00" routeLength="329.04" waitingTime="53.00" waitingCount="2" stopTime="0.00" timeLoss="66.06" rerouteNo="0" devices="tripinfo_80" vType="DEFAULT_VEHTYPE" speedFactor="1.00" vaporized=""/>
    <tripinfo id="98" depart="98.00" departLane="-618_0" departPos="5.10" departSpeed="0.00" departDelay="0.00" arrival="180.00" arrivalLane="612_0" arrivalPos="186.44" arrivalSpeed="13.40" duration="82.00" routeLength="648.35" waitingTime="23.00" waitingCount="1" stopTime="0.00" timeLoss="34.57" rerouteNo="0" devices="tripinfo_98" vType="DEFAULT_VEHTYPE" speedFactor="1.00" vaporized=""/>
    <tripinfo id="20" depart="20.00" departLane="-11_0" departPos="5.10" departSpeed="0.00" departDelay="0.00" arrival="181.00" arrivalLane="618_0" arrivalPos="144.96" arrivalSpeed="13.06" duration="161.00" routeLength="1203.86" waitingTime="49.00" waitingCount="3" stopTime="0.00" timeLoss="73.56" rerouteNo="0" devices="tripinfo_20" vType="DEFAULT_VEHTYPE" speedFactor="1.00" vaporized=""/>
    <tripinfo id="140" depart="140.00" departLane="-623_0" departPos="5.10" departSpeed="0.00" departDelay="0.00" arrival="185.00" arrivalLane="639_2" arrivalPos="193.24" arrivalSpeed="12.87" duration="45.00" routeLength="379.87" waitingTime="0.00" waitingCount="0" stopTime="0.00" timeLoss="16.79" rerouteNo="0" devices="tripinfo_140" vType="DEFAULT_VEHTYPE" speedFactor="1.00" vaporized=""/>
    <tripinfo id="118" depart="118.00" departLane="-597_0" departPos="5.10" departSpeed="0.00" departDelay="0.00" arrival="193.00" arrivalLane="496_0" arrivalPos="115.96" arrivalSpeed="13.02" duration="75.00" routeLength="621.31" waitingTime="18.00" waitingCount="1" stopTime="0.00" timeLoss="29.60" rerouteNo="0" devices="tripinfo_118" vType="DEFAULT_VEHTYPE" speedFactor="1.00" vaporized=""/>
    <tripinfo id="70" depart="70.00" departLane="-569_0" departPos="5.10" departSpeed="0.00" departDelay="0.00" arrival="194.00" arrivalLane="618_0" arrivalPos="144.96" arrivalSpeed="12.82" duration="124.00" routeLength="931.72" waitingTime="46.00" waitingCount="1" stopTime="0.00" timeLoss="56.44" rerouteNo="0" devices="tripinfo_70" vType="DEFAULT_VEHTYPE" speedFactor="1.00" vaporized=""/>
    <tripinfo id="42" depart="42.00" departLane="-569_0" departPos="5.10" departSpeed="0.00" departDelay="0.00" arrival="195.00" arrivalLane="569_0" arrivalPos="185.22" arrivalSpeed="13.90" duration="153.00" routeLength="1257.83" waitingTime="36.00" waitingCount="3" stopTime="0.00" timeLoss="62.27" rerouteNo="0" devices="tripinfo_42" vType="DEFAULT_VEHTYPE" speedFactor="1.00" vaporized=""/>
    <tripinfo id="158" depart="158.00" departLane="-639_0" departPos="5.10" departSpeed="0.00" departDelay="0.00" arrival="195.00" arrivalLane="625_0" arrivalPos="139.12" arrivalSpeed="13.30" duration="37.00" routeLength="353.74" waitingTime="2.00" waitingCount="1" stopTime="0.00" timeLoss="11.09" rerouteNo="0" devices="tripinfo_158" vType="DEFAULT_VEHTYPE" speedFactor="1.00" vaporized=""/>
    <tripinfo id="18" depart="18.00" departLane="-569_0" departPos="5.10" departSpeed="0.00" departDelay="0.00" arrival="196.00" arrivalLane="11_0" arrivalPos="159.22" arrivalSpeed="13.43" duration="178.00" routeLength="1291.63" waitingTime="54.00" waitingCount="4" stopTime="0.00" timeLoss="84.61" rerouteNo="0" devices="tripinfo_18" vType="DEFAULT_VEHTYPE" speedFactor="1.00" vaporized=""/>
    <tripinfo id="8" depart="8.00" departLane="-330_0" departPos="5.10" departSpeed="0.00" departDelay="0.00" arrival="200.00" arrivalLane="330_1" arrivalPos="208.13" arrivalSpeed="12.84" duration="192.00" routeLength="1240.36" waitingTime="74.00" waitingCount="3" stopTime="0.00" timeLoss="101.90" rerouteNo="0" devices="tripinfo_8" vType="DEFAULT_VEHTYPE" speedFactor="1.00" vaporized=""/>
    <tripinfo id="173" depart="173.00" departLane="-639_0" departPos="5.10" departSpeed="0.00" departDelay="0.00" arrival="201.00" arrivalLane="621_1" arrivalPos="97.07" arrivalSpeed="13.26" duration="28.00" routeLength="307.46" waitingTime="0.00" waitingCount="0" stopTime="0.00" timeLoss="5.68" rerouteNo="0" devices="tripinfo_173" vType="DEFAULT_VEHTYPE" speedFactor="1.00" vaporized=""/>
    <tripinfo id="77" depart="77.00" departLane="-618_0" departPos="5.10" departSpeed="0.00" departDelay="0.00" arrival="204.00" arrivalLane="618_1" arrivalPos="144.96" arrivalSpeed="13.14" duration="127.00" routeLength="953.13" waitingTime="43.00" waitingCount="1" stopTime="0.00" timeLoss="57.24" rerouteNo="0" devices="tripinfo_77" vType="DEFAULT_VEHTYPE" speedFactor="1.00" vaporized=""/>
    <tripinfo id="127" depart="127.00" departLane="-618_0" departPos="5.10" departSpeed="0.00" departDelay="0.00" arrival="209.00" arrivalLane="618_1" arrivalPos="144.96" arrivalSpeed="13.58" duration="82.00" routeLength="953.13" waitingTime="0.00" waitingCount="0" stopTime="0.00" timeLoss="12.55" rerouteNo="0" devices="tripinfo_127" vType="DEFAULT_VEHTYPE" speedFactor="1.00" vaporized=""/>
    <tripinfo id="47" depart="47.00" departLane="-623_0" departPos="5.10" departSpeed="0.00" departDelay="0.00" arrival="210.00" arrivalLane="330_1" arrivalPos="208.13" arrivalSpeed="13.21" duration="163.00" routeLength="860.50" waitingTime="74.00" waitingCount="2" stopTime="0.00" timeLoss="100.54" rerouteNo="0" devices="tripinfo_47" vType="DEFAULT_VEHTYPE" speedFactor="1.00" vaporized=""/>
    <tripinfo id="87" depart="87.00" departLane="-639_0" departPos="5.10" departSpeed="0.00" departDelay="0.00" arrival="212.00" arrivalLane="330_1" arrivalPos="208.13" arrivalSpeed="12.88" duration="125.00" routeLength="887.51" waitingTime="41.00" waitingCount="1" stopTime="0.00" timeLoss="60.45" rerouteNo="0" devices="tripinfo_87" vType="DEFAULT_VEHTYPE" speedFactor="1.00" vaporized=""/>
    <tripinfo id="40" depart="40.00" departLane="-625_0" departPos="5.10" departSpeed="0.00" departDelay="0.00" arrival="213.00" arrivalLane="330_1" arrivalPos="208.13" arrivalSpeed="13.24" duration="173.00" routeLength="832.72" waitingTime="83.00" waitingCount="3" stopTime="0.00" timeLoss="113.10" rerouteNo="0" devices="tripinfo_40" vType="DEFAULT_VEHTYPE" speedFactor="1.00" vaporized=""/>
    <tripinfo id="96" depart="96.00" departLane="-330_0" departPos="5.10" departSpeed="0.00" departDelay="0.00" arrival="214.00" arrivalLane="11_1" arrivalPos="159.22" arrivalSpeed="13.69" duration="118.00" routeLength="877.81" waitingTime="40.00" waitingCount="1" stopTime="0.00" timeLoss="54.20" rerouteNo="0" devices="tripinfo_96" vType="DEFAULT_VEHTYPE" speedFactor="1.00" vaporized=""/>
    <tripinfo id="34" depart="34.00" departLane="-11_0" departPos="5.10" departSpeed="0.00" departDelay="0.00" arrival="216.00" arrivalLane="612_0" arrivalPos="186.44" arrivalSpeed="12.69" duration="182.00" routeLength="1282.65" waitingTime="58.00" waitingCount="3" stopTime="0.00" timeLoss="89.25" rerouteNo="0" devices="tripinfo_34" vType="DEFAULT_VEHTYPE" speedFactor="1.00" vaporized=""/>
    <tripinfo id="66" depart="66.00" departLane="-639_0" departPos="5.10" departSpeed="0.00" departDelay="0.00" arrival="218.00" arrivalLane="11_1" arrivalPos="159.22" arrivalSpeed="13.21" duration="152.00" routeLength="1069.18" waitingTime="50.00" waitingCount="2" stopTime="0.00" timeLoss="74.41" rerouteNo="0" devices="tripinfo_66" vType="DEFAULT_VEHTYPE" speedFactor="1.00" vaporized=""/>
    <tripinfo id="109" depart="109.00" departLane="-612_0" departPos="5.10" departSpeed="0.00" departDelay="0.00" arrival="224.00" arrivalLane="612_0" arrivalPos="186.44" arrivalSpeed="13.45" duration="115.00" routeLength="1047.01" waitingTime="9.00" waitingCount="3" stopTime="0.00" timeLoss="39.53" rerouteNo="0" devices="tripinfo_109" vType="DEFAULT_VEHTYPE" speedFactor="1.00" vaporized=""/>
    <tripinfo id="83" depart="83.00" departLane="-639_0" departPos="5.10" departSpeed="0.00" departDelay="0.00" arrival="227.00" arrivalLane="642_0" arrivalPos="220.71" arrivalSpeed="13.52" duration="144.00" routeLength="1141.75" waitingTime="41.00" waitingCount="1" stopTime="0.00" timeLoss="61.39" rerouteNo="0" devices="tripinfo_83" vType="DEFAULT_VEHTYPE" speedFactor="1.00" vaporized=""/>
    <tripinfo id="32" depart="32.00" departLane="-618_0" departPos="5.10" departSpeed="0.00" departDelay="0.00" arrival="228.00" arrivalLane="597_0" arrivalPos="96.87" arrivalSpeed="13.24" duration="196.00" routeLength="1580.94" waitingTime="49.00" waitingCount="4" stopTime="0.00" timeLoss="81.55" rerouteNo="0" devices="tripinfo_32" vType="DEFAULT_VEHTYPE" speedFactor="1.00" vaporized=""/>
    <tripinfo id="82" depart="82.00" departLane="-612_0" departPos="5.10" departSpeed="0.00" departDelay="0.00" arrival="230.00" arrivalLane="612_0" arrivalPos="186.44" arrivalSpeed="12.91" duration="148.00" routeLength="1047.01" waitingTime="42.00" waitingCount="4" stopTime="0.00" timeLoss="72.45" rerouteNo="0" devices="tripinfo_82" vType="DEFAULT_VEHTYPE" speedFactor="1.00" vaporized=""/>
    <tripinfo id="174" depart="174.00" departLane="-330_0" departPos="5.10" departSpeed="0.00" departDelay="0.00" arrival="237.00" arrivalLane="642_0" arrivalPos="220.71" arrivalSpeed="13.45" duration="63.00" routeLength="688.43" waitingTime="1.00" waitingCount="1" stopTime="0.00" timeLoss="13.03" rerouteNo="0" devices="tripinfo_174" vType="DEFAULT_VEHTYPE" speedFactor="1.00" vaporized=""/>
    <tripinfo id="169" depart="169.00" departLane="-621_0" departPos="5.10" departSpeed="0.00" departDelay="0.00" arrival="237.00" arrivalLane="625_0" arrivalPos="139.12" arrivalSpeed="13.10" duration="68.00" routeLength="249.61" waitingTime="36.00" waitingCount="1" stopTime="0.00" timeLoss="49.53" rerouteNo="0" devices="tripinfo_169" vType="DEFAULT_VEHTYPE" speedFactor="1.00" vaporized=""/>
    <tripinfo id="146" depart="146.00" departLane="-496_0" departPos="5.10" departSpeed="0.00" departDelay="0.00" arrival="241.00" arrivalLane="597_1" arrivalPos="96.87" arrivalSpeed="13.41" duration="95.00" routeLength="632.27" waitingTime="34.00" waitingCount="2" stopTime="0.00" timeLoss="49.32" rerouteNo="0" devices="tripinfo_146" vType="DEFAULT_VEHTYPE" speedFactor="1.00" vaporized=""/>
    <tripinfo id="0" depart="0.00" departLane="-11_0" departPos="5.10" departSpeed="0.00" departDelay="0.00" arrival="241.00" arrivalLane="618_0" arrivalPos="144.96" arrivalSpeed="13.42" duration="241.00" routeLength="1203.86" waitingTime="117.00" waitingCount="4" stopTime="0.00" timeLoss="153.69" rerouteNo="0" devices="tripinfo_0" vType="DEFAULT_VEHTYPE" speedFactor="1.00" vaporized=""/>
    <tripinfo id="56" depart="56.00" departLane="-569_0" departPos="5.10" departSpeed="0.00" departDelay="0.00" arrival="242.00" arrivalLane="496_1" arrivalPos="115.96" arrivalSpeed="12.94" duration="186.00" routeLength="932.58" waitingTime="94.00" waitingCount="3" stopTime="0.00" timeLoss="118.54" rerouteNo="0" devices="tripinfo_56" vType="DEFAULT_VEHTYPE" speedFactor="1.00" vaporized=""/>
    <tripinfo id="176" depart="176.00" departLane="-496_0" departPos="5.10" departSpeed="0.00" departDelay="0.00" arrival="243.00" arrivalLane="597_1" arrivalPos="96.87" arrivalSpeed="13.27" duration="67.00" routeLength="632.27" waitingTime="8.00" waitingCount="1" stopTime="0.00" timeLoss="21.13" rerouteNo="0" devices="tripinfo_176" vType="DEFAULT_VEHTYPE" speedFactor="1.00" vaporized=""/>
    <tripinfo id="6" depart="6.00" departLane="-618_0" departPos="5.10" departSpeed="0.00" departDelay="0.00" arrival="244.00" arrivalLane="496_1" arrivalPos="115.96" arrivalSpeed="13.57" duration="238.00" routeLength="1232.03" waitingTime="115.00" waitingCount="5" stopTime="0.00" timeLoss="148.83" rerouteNo="0" devices="tripinfo_6" vType="DEFAULT_VEHTYPE" speedFactor="1.00" vaporized=""/>
    <tripinfo id="221" depart="221.00" departLane="-621_0" departPos="5.10" departSpeed="0.00" departDelay="0.00" arrival="246.00" arrivalLane="623_0" arrivalPos="168.03" arrivalSpeed="13.34" duration="25.00" routeLength="284.37" waitingTime="0.00" waitingCount="0" stopTime="0.00" timeLoss="3.65" rerouteNo="0" devices="tripinfo_221" vType="DEFAULT_VEHTYPE" speedFactor="1.00" vaporized=""/>
    <tripinfo id="122" depart="122.00" departLane="-533_0" departPos="5.10" departSpeed="0.00" departDelay="0.00" arrival="247.00" arrivalLane="618_0" arrivalPos="144.96" arrivalSpeed="13.22" duration="125.00" routeLength="859.33" waitingTime="45.00" waitingCount="2" stopTime="0.00" timeLoss="63.08" rerouteNo="0" devices="tripinfo_122" vType="DEFAULT_VEHTYPE" speedFactor="1.00" vaporized=""/>
    <tripinfo id="67" depart="69.00" departLane="-639_0" departPos="5.10" departSpeed="0.00" departDelay="2.00" arrival="251.00" arrivalLane="597_0" arrivalPos="96.87" arrivalSpeed="13.59" duration="182.00" routeLength="1172.95" waitingTime="63.00" waitingCount="4" stopTime="0.00" timeLoss="97.31" rerouteNo="0" devices="tripinfo_67" vType="DEFAULT_VEHTYPE" speedFactor="1.00" vaporized=""/>
    <tripinfo id="38" depart="38.00" departLane="-11_0" departPos="5.10" departSpeed="0.00" departDelay="0.00" arrival="251.00" arrivalLane="639_1" arrivalPos="193.24" arrivalSpeed="13.49" duration="213.00" routeLength="1068.70" waitingTime="103.00" waitingCount="5" stopTime="0.00" timeLoss="135.70" rerouteNo="0" devices="tripinfo_38" vType="DEFAULT_VEHTYPE" speedFactor="1.00" vaporized=""/>
    <tripinfo id="76" depart="76.00" departLane="-642_0" departPos="5.10" departSpeed="0.00" departDelay="0.00" arrival="254.00" arrivalLane="597_0" arrivalPos="96.87" arrivalSpeed="12.71" duration="178.00" routeLength="1476.23" waitingTime="44.00" waitingCount="3" stopTime="0.00" timeLoss="71.33" rerouteNo="0" devices="tripinfo_76" vType="DEFAULT_VEHTYPE" speedFactor="1.00" vaporized=""/>
    <tripinfo id="222" depart="222.00" departLane="-639_0" departPos="5.10" departSpeed="0.00" departDelay="0.00" arrival="260.00" arrivalLane="623_0" arrivalPos="168.03" arrivalSpeed="13.44" duration="38.00" routeLength="362.44" waitingTime="1.00" waitingCount="1" stopTime="0.00" timeLoss="11.80" rerouteNo="0" devices="tripinfo_222" vType="DEFAULT_VEHTYPE" speedFactor="1.00" vaporized=""/>
    <tripinfo id="192" depart="193.00" departLane="-623_0" departPos="5.10" departSpeed="0.00" departDelay="1.00" arrival="262.00" arrivalLane="621_1" arrivalPos="97.07" arrivalSpeed="13.43" duration="69.00" routeLength="286.93" waitingTime="32.00" waitingCount="1" stopTime="0.00" timeLoss="48.26" rerouteNo="0" devices="tripinfo_192" vType="DEFAULT_VEHTYPE" speedFactor="1.00" vaporized=""/>
    <tripinfo id="181" depart="181.00" departLane="-533_0" departPos="5.10" departSpeed="0.00" departDelay="0.00" arrival="262.00" arrivalLane="618_0" arrivalPos="144.96" arrivalSpeed="13.58" duration="81.00" routeLength="859.33" waitingTime="2.00" waitingCount="2" stopTime="0.00" timeLoss="19.11" rerouteNo="0" devices="tripinfo_181" vType="DEFAULT_VEHTYPE" speedFactor="1.00" vaporized=""/>
    <tripinfo id="197" depart="199.00" departLane="-623_0" departPos="5.10" departSpeed="0.00" departDelay="2.00" arrival="273.00" arrivalLane="639_2" arrivalPos="193.24" arrivalSpeed="12.76" duration="74.00" routeLength="379.87" waitingTime="29.00" waitingCount="1" stopTime="0.00" timeLoss="46.45" rerouteNo="0" devices="tripinfo_197" vType="DEFAULT_VEHTYPE" speedFactor="1.00" vaporized=""/>
    <tripinfo id="216" depart="216.00" departLane="-623_0" departPos="5.10" departSpeed="0.00" departDelay="0.00" arrival="276.00" arrivalLane="639_2" arrivalPos="193.24" arrivalSpeed="13.39" duration="60.00" routeLength="379.87" waitingTime="17.00" waitingCount="1" stopTime="0.00" timeLoss="32.68" rerouteNo="0" devices="tripinfo_216" vType="DEFAULT_VEHTYPE" speedFactor="1.00" vaporized=""/>
    <tripinfo id="138" depart="138.00" departLane="-612_0" departPos="5.10" departSpeed="0.00" departDelay="0.00" arrival="283.00" arrivalLane="533_0" arrivalPos="115.64" arrivalSpeed="13.31" duration="145.00" routeLength="1171.59" waitingTime="42.00" waitingCount="2" stopTime="0.00" timeLoss="59.91" rerouteNo="0" devices="tripinfo_138" vType="DEFAULT_VEHTYPE" speedFactor="1.00" vaporized=""/>
    <tripinfo id="195" depart="195.00" departLane="-612_0" departPos="5.10" departSpeed="0.00" departDelay="0.00" arrival="285.00" arrivalLane="618_1" arrivalPos="144.96" arrivalSpeed="12.79" duration="90.00" routeLength="639.70" waitingTime="27.00" waitingCount="2" stopTime="0.00" timeLoss="43.17" rerouteNo="0" devices="tripinfo_195" vType="DEFAULT_VEHTYPE" speedFactor="1.00" vaporized=""/>
    <tripinfo id="199" depart="199.00" departLane="-639_0" departPos="5.10" departSpeed="0.00" departDelay="0.00" arrival="285.00" arrivalLane="625_0" arrivalPos="139.12" arrivalSpeed="13.69" duration="86.00" routeLength="353.74" waitingTime="50.00" waitingCount="1" stopTime="0.00" timeLoss="60.04" rerouteNo="0" devices="tripinfo_199" vType="DEFAULT_VEHTYPE" speedFactor="1.00" vaporized=""/>
    <tripinfo id="50" depart="50.00" departLane="-496_0" departPos="5.10" departSpeed="0.00" departDelay="0.00" arrival="286.00" arrivalLane="11_1" arrivalPos="159.22" arrivalSpeed="12.82" duration="236.00" routeLength="1120.42" waitingTime="117.00" waitingCount="5" stopTime="0.00" timeLoss="154.99" rerouteNo="0" devices="tripinfo_50" vType="DEFAULT_VEHTYPE" speedFactor="1.00" vaporized=""/>
    <tripinfo id="10" depart="10.00" departLane="-612_0" departPos="5.10" departSpeed="0.00" departDelay="0.00" arrival="286.00" arrivalLane="11_0" arrivalPos="159.22" arrivalSpeed="13.57" duration="276.00" routeLength="1233.50" waitingTime="165.00" waitingCount="3" stopTime="0.00" timeLoss="186.39" rerouteNo="0" devices="tripinfo_10" vType="DEFAULT_VEHTYPE" speedFactor="1.00" vaporized=""/>
    <tripinfo id="45" depart="45.00" departLane="-330_0" departPos="5.10" departSpeed="0.00" departDelay="0.00" arrival="286.00" arrivalLane="533_0" arrivalPos="115.64" arrivalSpeed="13.87" duration="241.00" routeLength="1627.99" waitingTime="80.00" waitingCount="7" stopTime="0.00" timeLoss="123.49" rerouteNo="0" devices="tripinfo_45" vType="DEFAULT_VEHTYPE" speedFactor="1.00" vaporized=""/>