<?xml version="1.0" encoding="UTF-8"?>

<!-- generated on 06/17/18 11:23:11 by Eclipse SUMO GUI Version v0_32_0+1428-4ab3f27cbd
<configuration xmlns:xsi="http://www.w3.org/2001/XMLSchema-instance" xsi:noNamespaceSchemaLocation="http://sumo.dlr.de/xsd/sumoConfiguration.xsd">

    <input>
        <net-file value="./New_York/New_York.net.xml"/>
        <route-files value="./New_York/routes.rou.alt.xml"/>
        <additional-files value="./New_York/e2.add.xml"/>
    </input>

    <output>
        <tripinfo-output value="./New_York/New_York_tripinfo-output_MaxOccupancyScheduler.xml"/>
    </output>

    <traci_server>
        <remote-port value="53376"/>
    </traci_server>

</configuration>
-->

<tripinfos xmlns:xsi="http://www.w3.org/2001/XMLSchema-instance" xsi:noNamespaceSchemaLocation="http://sumo.dlr.de/xsd/tripinfo_file.xsd">
    <tripinfo id="4" depart="4.00" departLane="-5672518_0" departPos="5.10" departSpeed="0.00" departDelay="0.00" arrival="19.00" arrivalLane="5672178#3_0" arrivalPos="40.50" arrivalSpeed="11.05" duration="15.00" routeLength="110.82" waitingTime="0.00" waitingCount="0" stopTime="0.00" timeLoss="2.59" rerouteNo="0" devices="tripinfo_4" vType="DEFAULT_VEHTYPE" speedFactor="1.00" vaporized=""/>
    <tripinfo id="9" depart="9.00" departLane="-5672518_0" departPos="5.10" departSpeed="0.00" departDelay="0.00" arrival="20.00" arrivalLane="5672518_0" arrivalPos="24.90" arrivalSpeed="5.51" duration="11.00" routeLength="49.37" waitingTime="0.00" waitingCount="0" stopTime="0.00" timeLoss="1.67" rerouteNo="0" devices="tripinfo_9" vType="DEFAULT_VEHTYPE" speedFactor="1.00" vaporized=""/>
    <tripinfo id="30" depart="30.00" departLane="165777951#0_0" departPos="5.10" departSpeed="0.00" departDelay="0.00" arrival="54.00" arrivalLane="5670594#2_1" arrivalPos="46.32" arrivalSpeed="11.11" duration="24.00" routeLength="222.20" waitingTime="0.00" waitingCount="0" stopTime="0.00" timeLoss="3.33" rerouteNo="0" devices="tripinfo_30" vType="DEFAULT_VEHTYPE" speedFactor="1.00" vaporized=""/>
    <tripinfo id="0" depart="0.00" departLane="352705238#0_0" departPos="5.10" departSpeed="0.00" departDelay="0.00" arrival="55.00" arrivalLane="464522037#7_0" arrivalPos="81.64" arrivalSpeed="10.21" duration="55.00" routeLength="550.07" waitingTime="0.00" waitingCount="0" stopTime="0.00" timeLoss="5.55" rerouteNo="0" devices="tripinfo_0" vType="DEFAULT_VEHTYPE" speedFactor="1.00" vaporized=""/>
    <tripinfo id="2" depart="2.00" departLane="5670172#0_0" departPos="5.10" departSpeed="0.00" departDelay="0.00" arrival="62.00" arrivalLane="25199883#5_0" arrivalPos="164.90" arrivalSpeed="10.60" duration="60.00" routeLength="547.09" waitingTime="0.00" waitingCount="0" stopTime="0.00" timeLoss="10.91" rerouteNo="0" devices="tripinfo_2" vType="DEFAULT_VEHTYPE" speedFactor="1.00" vaporized=""/>
    <tripinfo id="58" depart="58.00" departLane="-561084838#9_0" departPos="5.10" departSpeed="0.00" departDelay="0.00" arrival="63.00" arrivalLane="561084838#9_2" arrivalPos="6.97" arrivalSpeed="7.78" duration="5.00" routeLength="13.52" waitingTime="0.00" waitingCount="0" stopTime="0.00" timeLoss="3.35" rerouteNo="0" devices="tripinfo_58" vType="DEFAULT_VEHTYPE" speedFactor="1.00" vaporized=""/>
    <tripinfo id="5" depart="5.00" departLane="5673089#0_0" departPos="5.10" departSpeed="0.00" departDelay="0.00" arrival="72.00" arrivalLane="46139037#5_1" arrivalPos="6.06" arrivalSpeed="8.97" duration="67.00" routeLength="581.86" waitingTime="1.00" waitingCount="1" stopTime="0.00" timeLoss="14.16" rerouteNo="0" devices="tripinfo_5" vType="DEFAULT_VEHTYPE" speedFactor="1.00" vaporized=""/>
    <tripinfo id="20" depart="21.00" departLane="125528659#0_0" departPos="5.10" departSpeed="0.00" departDelay="1.00" arrival="80.00" arrivalLane="5670594#2_1" arrivalPos="46.32" arrivalSpeed="10.23" duration="59.00" routeLength="546.39" waitingTime="0.00" waitingCount="0" stopTime="0.00" timeLoss="10.10" rerouteNo="0" devices="tripinfo_20" vType="DEFAULT_VEHTYPE" speedFactor="1.00" vaporized=""/>
    <tripinfo id="38" depart="38.00" departLane="421825692#0_0" departPos="5.10" departSpeed="0.00" departDelay="0.00" arrival="87.00" arrivalLane="46139037#5_1" arrivalPos="6.06" arrivalSpeed="7.66" duration="49.00" routeLength="425.49" waitingTime="1.00" waitingCount="1" stopTime="0.00" timeLoss="10.52" rerouteNo="0" devices="tripinfo_38" vType="DEFAULT_VEHTYPE" speedFactor="1.00" vaporized=""/>
    <tripinfo id="15" depart="15.00" departLane="5669962#0_0" departPos="5.10" departSpeed="0.00" departDelay="0.00" arrival="87.00" arrivalLane="561084838#9_1" arrivalPos="6.97" arrivalSpeed="5.78" duration="72.00" routeLength="696.07" waitingTime="1.00" waitingCount="1" stopTime="0.00" timeLoss="9.48" rerouteNo="0" devices="tripinfo_15" vType="DEFAULT_VEHTYPE" speedFactor="1.00" vaporized=""/>
    <tripinfo id="52" depart="52.00" departLane="420358898#0_0" departPos="5.10" departSpeed="0.00" departDelay="0.00" arrival="87.00" arrivalLane="5670594#2_0" arrivalPos="46.32" arrivalSpeed="10.49" duration="35.00" routeLength="337.87" waitingTime="0.00" waitingCount="0" stopTime="0.00" timeLoss="4.13" rerouteNo="0" devices="tripinfo_52" vType="DEFAULT_VEHTYPE" speedFactor="1.00" vaporized=""/>
    <tripinfo id="1" depart="1.00" departLane="165777951#0_0" departPos="5.10" departSpeed="0.00" departDelay="0.00" arrival="90.00" arrivalLane="479642040#3_0" arrivalPos="218.99" arrivalSpeed="10.60" duration="89.00" routeLength="756.03" waitingTime="8.00" waitingCount="1" stopTime="0.00" timeLoss="20.55" rerouteNo="0" devices="tripinfo_1" vType="DEFAULT_VEHTYPE" speedFactor="1.00" vaporized=""/>
    <tripinfo id="39" depart="39.00" departLane="5672184#0_0" departPos="5.10" departSpeed="0.00" departDelay="0.00" arrival="101.00" arrivalLane="118400726#18_1" arrivalPos="84.40" arrivalSpeed="10.66" duration="62.00" routeLength="462.35" waitingTime="11.00" waitingCount="1" stopTime="0.00" timeLoss="19.74" rerouteNo="0" devices="tripinfo_39" vType="DEFAULT_VEHTYPE" speedFactor="1.00" vaporized=""/>
    <tripinfo id="19" depart="19.00" departLane="-561084838#9_0" departPos="5.10" departSpeed="0.00" departDelay="0.00" arrival="105.00" arrivalLane="46139037#5_0" arrivalPos="6.06" arrivalSpeed="9.66" duration="86.00" routeLength="418.68" waitingTime="36.00" waitingCount="1" stopTime="0.00" timeLoss="47.89" rerouteNo="0" devices="tripinfo_19" vType="DEFAULT_VEHTYPE" speedFactor="1.00" vaporized=""/>
    <tripinfo id="51" depart="51.00" departLane="352705238#0_0" departPos="5.10" departSpeed="0.00" departDelay="0.00" arrival="106.00" arrivalLane="464522037#7_0" arrivalPos="81.64" arrivalSpeed="10.65" duration="55.00" routeLength="550.07" waitingTime="0.00" waitingCount="0" stopTime="0.00" timeLoss="5.66" rerouteNo="0" devices="tripinfo_51" vType="DEFAULT_VEHTYPE" speedFactor="1.00" vaporized=""/>
    <tripinfo id="70" depart="70.00" departLane="118400726#0_0" departPos="5.10" departSpeed="0.00" departDelay="0.00" arrival="109.00" arrivalLane="5669962#10_0" arrivalPos="217.18" arrivalSpeed="10.68" duration="39.00" routeLength="378.35" waitingTime="0.00" waitingCount="0" stopTime="0.00" timeLoss="5.08" rerouteNo="0" devices="tripinfo_70" vType="DEFAULT_VEHTYPE" speedFactor="1.00" vaporized=""/>
    <tripinfo id="53" depart="53.00" departLane="5670172#0_0" departPos="5.10" departSpeed="0.00" departDelay="0.00" arrival="113.00" arrivalLane="46139037#5_1" arrivalPos="6.06" arrivalSpeed="11.14" duration="60.00" routeLength="553.26" waitingTime="0.00" waitingCount="0" stopTime="0.00" timeLoss="10.48" rerouteNo="0" devices="tripinfo_53" vType="DEFAULT_VEHTYPE" speedFactor="1.00" vaporized=""/>
    <tripinfo id="18" depart="18.00" departLane="125528659#0_0" departPos="5.10" departSpeed="0.00" departDelay="0.00" arrival="113.00" arrivalLane="5673093#4_0" arrivalPos="219.02" arrivalSpeed="10.08" duration="95.00" routeLength="909.05" waitingTime="1.00" waitingCount="1" stopTime="0.00" timeLoss="12.86" rerouteNo="0" devices="tripinfo_18" vType="DEFAULT_VEHTYPE" speedFactor="1.00" vaporized=""/>
    <tripinfo id="54" depart="54.00" departLane="-561084838#9_0" departPos="5.10" departSpeed="0.00" departDelay="0.00" arrival="115.00" arrivalLane="5672178#3_0" arrivalPos="40.50" arrivalSpeed="10.62" duration="61.00" routeLength="447.40" waitingTime="2.00" waitingCount="2" stopTime="0.00" timeLoss="20.77" rerouteNo="0" devices="tripinfo_54" vType="DEFAULT_VEHTYPE" speedFactor="1.00" vaporized=""/>
    <tripinfo id="44" depart="44.00" departLane="5671659#0_0" departPos="5.10" departSpeed="0.00" departDelay="0.00" arrival="121.00" arrivalLane="479642040#3_0" arrivalPos="218.99" arrivalSpeed="10.34" duration="77.00" routeLength="669.85" waitingTime="4.00" waitingCount="1" stopTime="0.00" timeLoss="16.63" rerouteNo="0" devices="tripinfo_44" vType="DEFAULT_VEHTYPE" speedFactor="1.00" vaporized=""/>
    <tripinfo id="13" depart="13.00" departLane="479642039#0_0" departPos="5.10" departSpeed="0.00" departDelay="0.00" arrival="121.00" arrivalLane="5673093#4_0" arrivalPos="219.02" arrivalSpeed="10.24" duration="108.00" routeLength="675.20" waitingTime="31.00" waitingCount="2" stopTime="0.00" timeLoss="47.16" rerouteNo="0" devices="tripinfo_13" vType="DEFAULT_VEHTYPE" speedFactor="1.00" vaporized=""/>
    <tripinfo id="14" depart="16.00" departLane="479642039#0_0" departPos="5.10" departSpeed="0.00" departDelay="2.00" arrival="121.00" arrivalLane="5672178#3_0" arrivalPos="40.50" arrivalSpeed="10.37" duration="105.00" routeLength="732.00" waitingTime="15.00" waitingCount="3" stopTime="0.00" timeLoss="38.63" rerouteNo="0" devices="tripinfo_14" vType="DEFAULT_VEHTYPE" speedFactor="1.00" vaporized=""/>
    <tripinfo id="66" depart="66.00" departLane="421825692#0_0" departPos="5.10" departSpeed="0.00" departDelay="0.00" arrival="122.00" arrivalLane="561084838#9_1" arrivalPos="6.97" arrivalSpeed="10.01" duration="56.00" routeLength="546.49" waitingTime="0.00" waitingCount="0" stopTime="0.00" timeLoss="7.05" rerouteNo="0" devices="tripinfo_66" vType="DEFAULT_VEHTYPE" speedFactor="1.00" vaporized=""/>
    <tripinfo id="65" depart="65.00" departLane="118400726#0_0" departPos="5.10" departSpeed="0.00" departDelay="0.00" arrival="122.00" arrivalLane="5670232#5_0" arrivalPos="216.80" arrivalSpeed="10.61" duration="57.00" routeLength="526.87" waitingTime="0.00" waitingCount="0" stopTime="0.00" timeLoss="9.20" rerouteNo="0" devices="tripinfo_65" vType="DEFAULT_VEHTYPE" speedFactor="1.00" vaporized=""/>
    <tripinfo id="28" depart="29.00" departLane="479642039#0_0" departPos="5.10" departSpeed="0.00" departDelay="1.00" arrival="123.00" arrivalLane="5673093#4_0" arrivalPos="219.02" arrivalSpeed="11.06" duration="94.00" routeLength="675.20" waitingTime="21.00" waitingCount="1" stopTime="0.00" timeLoss="32.99" rerouteNo="0" devices="tripinfo_28" vType="DEFAULT_VEHTYPE" speedFactor="1.00" vaporized=""/>
    <tripinfo id="22" depart="23.00" departLane="125528659#0_0" departPos="5.10" departSpeed="0.00" departDelay="1.00" arrival="126.00" arrivalLane="5672518_0" arrivalPos="24.90" arrivalSpeed="4.46" duration="103.00" routeLength="945.59" waitingTime="0.00" waitingCount="0" stopTime="0.00" timeLoss="15.53" rerouteNo="0" devices="tripinfo_22" vType="DEFAULT_VEHTYPE" speedFactor="1.00" vaporized=""/>
    <tripinfo id="92" depart="92.00" departLane="420358898#0_0" departPos="5.10" departSpeed="0.00" departDelay="0.00" arrival="127.00" arrivalLane="5670594#2_0" arrivalPos="46.32" arrivalSpeed="10.62" duration="35.00" routeLength="337.87" waitingTime="0.00" waitingCount="0" stopTime="0.00" timeLoss="3.91" rerouteNo="0" devices="tripinfo_92" vType="DEFAULT_VEHTYPE" speedFactor="1.00" vaporized=""/>
    <tripinfo id="16" depart="16.00" departLane="165777951#0_0" departPos="5.10" departSpeed="0.00" departDelay="0.00" arrival="130.00" arrivalLane="561084838#9_0" arrivalPos="6.97" arrivalSpeed="10.19" duration="114.00" routeLength="858.93" waitingTime="24.00" waitingCount="1" stopTime="0.00" timeLoss="36.71" rerouteNo="0" devices="tripinfo_16" vType="DEFAULT_VEHTYPE" speedFactor="1.00" vaporized=""/>
    <tripinfo id="17" depart="17.00" departLane="-5672518_0" departPos="5.10" departSpeed="0.00" departDelay="0.00" arrival="130.00" arrivalLane="5670594#2_0" arrivalPos="46.32" arrivalSpeed="10.72" duration="113.00" routeLength="1024.50" waitingTime="1.00" waitingCount="1" stopTime="0.00" timeLoss="19.63" rerouteNo="0" devices="tripinfo_17" vType="DEFAULT_VEHTYPE" speedFactor="1.00" vaporized=""/>
    <tripinfo id="37" depart="37.00" departLane="165777951#0_0" departPos="5.10" departSpeed="0.00" departDelay="0.00" arrival="132.00" arrivalLane="561084838#9_0" arrivalPos="6.97" arrivalSpeed="10.89" duration="95.00" routeLength="858.93" waitingTime="2.00" waitingCount="1" stopTime="0.00" timeLoss="17.77" rerouteNo="0" devices="tripinfo_37" vType="DEFAULT_VEHTYPE" speedFactor="1.00" vaporized=""/>
    <tripinfo id="23" depart="23.00" departLane="165777951#0_0" departPos="5.10" departSpeed="0.00" departDelay="0.00" arrival="132.00" arrivalLane="561084838#9_1" arrivalPos="6.97" arrivalSpeed="10.69" duration="109.00" routeLength="858.93" waitingTime="7.00" waitingCount="3" stopTime="0.00" timeLoss="32.01" rerouteNo="0" devices="tripinfo_23" vType="DEFAULT_VEHTYPE" speedFactor="1.00" vaporized=""/>
    <tripinfo id="95" depart="95.00" departLane="352705238#0_0" departPos="5.10" departSpeed="0.00" departDelay="0.00" arrival="136.00" arrivalLane="25199883#5_0" arrivalPos="164.90" arrivalSpeed="10.43" duration="41.00" routeLength="386.61" waitingTime="0.00" waitingCount="0" stopTime="0.00" timeLoss="6.06" rerouteNo="0" devices="tripinfo_95" vType="DEFAULT_VEHTYPE" speedFactor="1.00" vaporized=""/>
    <tripinfo id="71" depart="71.00" departLane="5669962#0_0" departPos="5.10" departSpeed="0.00" departDelay="0.00" arrival="136.00" arrivalLane="5672518_0" arrivalPos="24.90" arrivalSpeed="5.46" duration="65.00" routeLength="593.49" waitingTime="0.00" waitingCount="0" stopTime="0.00" timeLoss="8.86" rerouteNo="0" devices="tripinfo_71" vType="DEFAULT_VEHTYPE" speedFactor="1.00" vaporized=""/>
    <tripinfo id="7" depart="7.00" departLane="479642039#0_0" departPos="5.10" departSpeed="0.00" departDelay="0.00" arrival="137.00" arrivalLane="5670594#2_1" arrivalPos="46.32" arrivalSpeed="10.69" duration="130.00" routeLength="846.48" waitingTime="37.00" waitingCount="2" stopTime="0.00" timeLoss="53.80" rerouteNo="0" devices="tripinfo_7" vType="DEFAULT_VEHTYPE" speedFactor="1.00" vaporized=""/>
    <tripinfo id="49" depart="49.00" departLane="125528659#0_0" departPos="5.10" departSpeed="0.00" departDelay="0.00" arrival="137.00" arrivalLane="5673093#4_0" arrivalPos="219.02" arrivalSpeed="10.36" duration="88.00" routeLength="909.05" waitingTime="0.00" waitingCount="0" stopTime="0.00" timeLoss="6.60" rerouteNo="0" devices="tripinfo_49" vType="DEFAULT_VEHTYPE" speedFactor="1.00" vaporized=""/>
    <tripinfo id="11" depart="11.00" departLane="420358898#0_0" departPos="5.10" departSpeed="0.00" departDelay="0.00" arrival="139.00" arrivalLane="5669962#10_0" arrivalPos="217.18" arrivalSpeed="10.17" duration="128.00" routeLength="1184.35" waitingTime="1.00" waitingCount="1" stopTime="0.00" timeLoss="21.57" rerouteNo="0" devices="tripinfo_11" vType="DEFAULT_VEHTYPE" speedFactor="1.00" vaporized=""/>
    <tripinfo id="40" depart="42.00" departLane="5672184#0_0" departPos="5.10" departSpeed="0.00" departDelay="2.00" arrival="141.00" arrivalLane="479642040#3_0" arrivalPos="218.99" arrivalSpeed="11.00" duration="99.00" routeLength="951.32" waitingTime="0.00" waitingCount="0" stopTime="0.00" timeLoss="13.74" rerouteNo="0" devices="tripinfo_40" vType="DEFAULT_VEHTYPE" speedFactor="1.00" vaporized=""/>
    <tripinfo id="109" depart="109.00" departLane="420358898#0_0" departPos="5.10" departSpeed="0.00" departDelay="0.00" arrival="144.00" arrivalLane="5670594#2_0" arrivalPos="46.32" arrivalSpeed="10.17" duration="35.00" routeLength="337.87" waitingTime="0.00" waitingCount="0" stopTime="0.00" timeLoss="4.09" rerouteNo="0" devices="tripinfo_109" vType="DEFAULT_VEHTYPE" speedFactor="1.00" vaporized=""/>
    <tripinfo id="34" depart="34.00" departLane="479642039#0_0" departPos="5.10" departSpeed="0.00" departDelay="0.00" arrival="145.00" arrivalLane="5670232#5_0" arrivalPos="216.80" arrivalSpeed="10.06" duration="111.00" routeLength="949.83" waitingTime="2.00" waitingCount="1" stopTime="0.00" timeLoss="25.24" rerouteNo="0" devices="tripinfo_34" vType="DEFAULT_VEHTYPE" speedFactor="1.00" vaporized=""/>
    <tripinfo id="27" depart="27.00" departLane="125528659#0_0" departPos="5.10" departSpeed="0.00" departDelay="0.00" arrival="146.00" arrivalLane="46139037#5_0" arrivalPos="6.06" arrivalSpeed="6.96" duration="119.00" routeLength="924.98" waitingTime="8.00" waitingCount="3" stopTime="0.00" timeLoss="36.11" rerouteNo="0" devices="tripinfo_27" vType="DEFAULT_VEHTYPE" speedFactor="1.00" vaporized=""/>
    <tripinfo id="8" depart="8.00" departLane="-561084838#9_0" departPos="5.10" departSpeed="0.00" departDelay="0.00" arrival="147.00" arrivalLane="5670232#5_0" arrivalPos="216.80" arrivalSpeed="11.03" duration="139.00" routeLength="826.31" waitingTime="47.00" waitingCount="1" stopTime="0.00" timeLoss="64.32" rerouteNo="0" devices="tripinfo_8" vType="DEFAULT_VEHTYPE" speedFactor="1.00" vaporized=""/>
    <tripinfo id="3" depart="3.00" departLane="118400726#0_0" departPos="5.10" departSpeed="0.00" departDelay="0.00" arrival="150.00" arrivalLane="5670594#2_0" arrivalPos="46.32" arrivalSpeed="10.56" duration="147.00" routeLength="1040.76" waitingTime="29.00" waitingCount="2" stopTime="0.00" timeLoss="53.33" rerouteNo="0" devices="tripinfo_3" vType="DEFAULT_VEHTYPE" speedFactor="1.00" vaporized=""/>
    <tripinfo id="33" depart="33.00" departLane="421825692#0_0" departPos="5.10" departSpeed="0.00" departDelay="0.00" arrival="151.00" arrivalLane="5670232#5_0" arrivalPos="216.80" arrivalSpeed="10.12" duration="118.00" routeLength="888.33" waitingTime="18.00" waitingCount="1" stopTime="0.00" timeLoss="38.41" rerouteNo="0" devices="tripinfo_33" vType="DEFAULT_VEHTYPE" speedFactor="1.00" vaporized=""/>
    <tripinfo id="36" depart="36.00" departLane="421825692#0_0" departPos="5.10" departSpeed="0.00" departDelay="0.00" arrival="153.00" arrivalLane="5670594#2_0" arrivalPos="46.32" arrivalSpeed="9.89" duration="117.00" routeLength="968.33" waitingTime="16.00" waitingCount="1" stopTime="0.00" timeLoss="29.87" rerouteNo="0" devices="tripinfo_36" vType="DEFAULT_VEHTYPE" speedFactor="1.00" vaporized=""/>
    <tripinfo id="45" depart="45.00" departLane="125528659#0_0" departPos="5.10" departSpeed="0.00" departDelay="0.00" arrival="153.00" arrivalLane="5672178#3_0" arrivalPos="40.50" arrivalSpeed="10.46" duration="108.00" routeLength="955.65" waitingTime="5.00" waitingCount="2" stopTime="0.00" timeLoss="22.51" rerouteNo="0" devices="tripinfo_45" vType="DEFAULT_VEHTYPE" speedFactor="1.00" vaporized=""/>
    <tripinfo id="6" depart="6.00" departLane="5671659#0_0" departPos="5.10" departSpeed="0.00" departDelay="0.00" arrival="158.00" arrivalLane="464522037#7_0" arrivalPos="81.64" arrivalSpeed="10.98" duration="152.00" routeLength="1367.09" waitingTime="13.00" waitingCount="1" stopTime="0.00" timeLoss="29.31" rerouteNo="0" devices="tripinfo_6" vType="DEFAULT_VEHTYPE" speedFactor="1.00" vaporized=""/>
    <tripinfo id="42" depart="42.00" departLane="165777951#0_0" departPos="5.10" departSpeed="0.00" departDelay="0.00" arrival="160.00" arrivalLane="5669962#10_0" arrivalPos="217.18" arrivalSpeed="11.11" duration="118.00" routeLength="987.64" waitingTime="1.00" waitingCount="1" stopTime="0.00" timeLoss="29.45" rerouteNo="0" devices="tripinfo_42" vType="DEFAULT_VEHTYPE" speedFactor="1.00" vaporized=""/>
    <tripinfo id="24" depart="24.00" departLane="-5672518_0" departPos="5.10" departSpeed="0.00" departDelay="0.00" arrival="161.00" arrivalLane="5673093#4_0" arrivalPos="219.02" arrivalSpeed="10.95" duration="137.00" routeLength="1243.08" waitingTime="2.00" waitingCount="1" stopTime="0.00" timeLoss="23.21" rerouteNo="0" devices="tripinfo_24" vType="DEFAULT_VEHTYPE" speedFactor="1.00" vaporized=""/>
    <tripinfo id="25" depart="25.00" departLane="5671659#0_0" departPos="5.10" departSpeed="0.00" departDelay="0.00" arrival="161.00" arrivalLane="5670897#1_0" arrivalPos="70.15" arrivalSpeed="10.22" duration="136.00" routeLength="1264.56" waitingTime="2.00" waitingCount="1" stopTime="0.00" timeLoss="22.44" rerouteNo="0" devices="tripinfo_25" vType="DEFAULT_VEHTYPE" speedFactor="1.00" vaporized=""/>
    <tripinfo id="110" depart="110.00" departLane="421825692#0_0" departPos="5.10" departSpeed="0.00" departDelay="0.00" arrival="163.00" arrivalLane="46139037#5_0" arrivalPos="6.06" arrivalSpeed="9.16" duration="53.00" routeLength="425.49" waitingTime="1.00" waitingCount="1" stopTime="0.00" timeLoss="14.61" rerouteNo="0" devices="tripinfo_110" vType="DEFAULT_VEHTYPE" speedFactor="1.00" vaporized=""/>
    <tripinfo id="47" depart="47.00" departLane="5669962#0_0" departPos="5.10" departSpeed="0.00" departDelay="0.00" arrival="163.00" arrivalLane="5670594#2_0" arrivalPos="46.32" arrivalSpeed="10.32" duration="116.00" routeLength="1117.91" waitingTime="0.00" waitingCount="0" stopTime="0.00" timeLoss="15.59" rerouteNo="0" devices="tripinfo_47" vType="DEFAULT_VEHTYPE" speedFactor="1.00" vaporized=""/>
    <tripinfo id="43" depart="45.00" departLane="165777951#0_0" departPos="5.10" departSpeed="0.00" departDelay="2.00" arrival="163.00" arrivalLane="5669962#10_0" arrivalPos="217.18" arrivalSpeed="10.80" duration="118.00" routeLength="987.64" waitingTime="0.00" waitingCount="0" stopTime="0.00" timeLoss="28.90" rerouteNo="0" devices="tripinfo_43" vType="DEFAULT_VEHTYPE" speedFactor="1.00" vaporized=""/>
    <tripinfo id="67" depart="67.00" departLane="352705238#0_0" departPos="5.10" departSpeed="0.00" departDelay="0.00" arrival="164.00" arrivalLane="46139037#5_1" arrivalPos="6.06" arrivalSpeed="6.78" duration="97.00" routeLength="702.46" waitingTime="6.00" waitingCount="2" stopTime="0.00" timeLoss="33.90" rerouteNo="0" devices="tripinfo_67" vType="DEFAULT_VEHTYPE" speedFactor="1.00" vaporized=""/>
    <tripinfo id="123" depart="123.00" departLane="352705238#0_0" departPos="5.10" departSpeed="0.00" departDelay="0.00" arrival="164.00" arrivalLane="25199883#5_0" arrivalPos="164.90" arrivalSpeed="10.08" duration="41.00" routeLength="386.61" waitingTime="0.00" waitingCount="0" stopTime="0.00" timeLoss="6.09" rerouteNo="0" devices="tripinfo_123" vType="DEFAULT_VEHTYPE" speedFactor="1.00" vaporized=""/>
    <tripinfo id="78" depart="78.00" departLane="5673089#0_0" departPos="5.10" departSpeed="0.00" departDelay="0.00" arrival="168.00" arrivalLane="25199883#5_0" arrivalPos="164.90" arrivalSpeed="10.20" duration="90.00" routeLength="821.60" waitingTime="4.00" waitingCount="1" stopTime="0.00" timeLoss="16.37" rerouteNo="0" devices="tripinfo_78" vType="DEFAULT_VEHTYPE" speedFactor="1.00" vaporized=""/>
    <tripinfo id="31" depart="31.00" departLane="5669962#0_0" departPos="5.10" departSpeed="0.00" departDelay="0.00" arrival="172.00" arrivalLane="479642040#3_0" arrivalPos="218.99" arrivalSpeed="9.93" duration="141.00" routeLength="1189.94" waitingTime="13.00" waitingCount="2" stopTime="0.00" timeLoss="34.32" rerouteNo="0" devices="tripinfo_31" vType="DEFAULT_VEHTYPE" speedFactor="1.00" vaporized=""/>
    <tripinfo id="10" depart="10.00" departLane="5672184#0_0" departPos="5.10" departSpeed="0.00" departDelay="0.00" arrival="173.00" arrivalLane="464522037#7_1" arrivalPos="81.64" arrivalSpeed="11.15" duration="163.00" routeLength="1101.88" waitingTime="38.00" waitingCount="4" stopTime="0.00" timeLoss="64.08" rerouteNo="0" devices="tripinfo_10" vType="DEFAULT_VEHTYPE" speedFactor="1.00" vaporized=""/>
    <tripinfo id="93" depart="93.00" departLane="165777951#0_0" departPos="5.10" departSpeed="0.00" departDelay="0.00" arrival="176.00" arrivalLane="479642040#3_0" arrivalPos="218.99" arrivalSpeed="10.04" duration="83.00" routeLength="756.03" waitingTime="1.00" waitingCount="1" stopTime="0.00" timeLoss="14.53" rerouteNo="0" devices="tripinfo_93" vType="DEFAULT_VEHTYPE" speedFactor="1.00" vaporized=""/>
    <tripinfo id="97" depart="97.00" departLane="-561084838#9_0" departPos="5.10" departSpeed="0.00" departDelay="0.00" arrival="176.00" arrivalLane="5669962#10_0" arrivalPos="217.18" arrivalSpeed="9.97" duration="79.00" routeLength="678.69" waitingTime="4.00" waitingCount="2" stopTime="0.00" timeLoss="18.22" rerouteNo="0" devices="tripinfo_97" vType="DEFAULT_VEHTYPE" speedFactor="1.00" vaporized=""/>
    <tripinfo id="152" depart="152.00" departLane="352705238#0_0" departPos="5.10" departSpeed="0.00" departDelay="0.00" arrival="177.00" arrivalLane="5672910#2_0" arrivalPos="73.27" arrivalSpeed="10.23" duration="25.00" routeLength="217.95" waitingTime="0.00" waitingCount="0" stopTime="0.00" timeLoss="4.68" rerouteNo="0" devices="tripinfo_152" vType="DEFAULT_VEHTYPE" speedFactor="1.00" vaporized=""/>
    <tripinfo id="12" depart="12.00" departLane="5669962#0_0" departPos="5.10" departSpeed="0.00" departDelay="0.00" arrival="179.00" arrivalLane="5673093#4_0" arrivalPos="219.02" arrivalSpeed="9.98" duration="167.00" routeLength="1336.49" waitingTime="24.00" waitingCount="2" stopTime="0.00" timeLoss="47.01" rerouteNo="0" devices="tripinfo_12" vType="DEFAULT_VEHTYPE" speedFactor="1.00" vaporized=""/>
    <tripinfo id="77" depart="77.00" departLane="421825692#0_0" departPos="5.10" departSpeed="0.00" departDelay="0.00" arrival="180.00" arrivalLane="5670232#5_0" arrivalPos="216.80" arrivalSpeed="10.74" duration="103.00" routeLength="888.33" waitingTime="6.00" waitingCount="2" stopTime="0.00" timeLoss="22.95" rerouteNo="0" devices="tripinfo_77" vType="DEFAULT_VEHTYPE" speedFactor="1.00" vaporized=""/>
    <tripinfo id="68" depart="68.00" departLane="-5672518_0" departPos="5.10" departSpeed="0.00" departDelay="0.00" arrival="180.00" arrivalLane="5670897#1_0" arrivalPos="70.15" arrivalSpeed="10.96" duration="112.00" routeLength="788.41" waitingTime="13.00" waitingCount="4" stopTime="0.00" timeLoss="39.08" rerouteNo="0" devices="tripinfo_68" vType="DEFAULT_VEHTYPE" speedFactor="1.00" vaporized=""/>
    <tripinfo id="75" depart="75.00" departLane="5670172#0_0" departPos="5.10" departSpeed="0.00" departDelay="0.00" arrival="181.00" arrivalLane="5672178#3_0" arrivalPos="40.50" arrivalSpeed="10.02" duration="106.00" routeLength="626.85" waitingTime="20.00" waitingCount="4" stopTime="0.00" timeLoss="49.07" rerouteNo="0" devices="tripinfo_75" vType="DEFAULT_VEHTYPE" speedFactor="1.00" vaporized=""/>
    <tripinfo id="102" depart="102.00" departLane="421825692#0_0" departPos="5.10" departSpeed="0.00" departDelay="0.00" arrival="183.00" arrivalLane="5672910#2_0" arrivalPos="73.27" arrivalSpeed="11.08" duration="81.00" routeLength="665.13" waitingTime="7.00" waitingCount="1" stopTime="0.00" timeLoss="21.44" rerouteNo="0" devices="tripinfo_102" vType="DEFAULT_VEHTYPE" speedFactor="1.00" vaporized=""/>
    <tripinfo id="26" depart="26.00" departLane="479642039#0_0" departPos="5.10" departSpeed="0.00" departDelay="0.00" arrival="189.00" arrivalLane="5670897#1_0" arrivalPos="70.15" arrivalSpeed="9.90" duration="163.00" routeLength="1162.40" waitingTime="32.00" waitingCount="2" stopTime="0.00" timeLoss="58.59" rerouteNo="0" devices="tripinfo_26" vType="DEFAULT_VEHTYPE" speedFactor="1.00" vaporized=""/>
    <tripinfo id="84" depart="84.00" departLane="5670172#0_0" departPos="5.10" departSpeed="0.00" departDelay="0.00" arrival="190.00" arrivalLane="5670594#2_0" arrivalPos="46.32" arrivalSpeed="10.03" duration="106.00" routeLength="857.52" waitingTime="9.00" waitingCount="1" stopTime="0.00" timeLoss="28.80" rerouteNo="0" devices="tripinfo_84" vType="DEFAULT_VEHTYPE" speedFactor="1.00" vaporized=""/>
    <tripinfo id="112" depart="112.00" departLane="5672184#0_0" departPos="5.10" departSpeed="0.00" departDelay="0.00" arrival="190.00" arrivalLane="118400726#18_0" arrivalPos="84.40" arrivalSpeed="10.65" duration="78.00" routeLength="462.35" waitingTime="16.00" waitingCount="3" stopTime="0.00" timeLoss="36.28" rerouteNo="0" devices="tripinfo_112" vType="DEFAULT_VEHTYPE" speedFactor="1.00" vaporized=""/>
    <tripinfo id="79" depart="79.00" departLane="420358898#0_0" departPos="5.10" departSpeed="0.00" departDelay="0.00" arrival="190.00" arrivalLane="5672910#2_0" arrivalPos="73.27" arrivalSpeed="10.91" duration="111.00" routeLength="1009.42" waitingTime="2.00" waitingCount="2" stopTime="0.00" timeLoss="20.07" rerouteNo="0" devices="tripinfo_79" vType="DEFAULT_VEHTYPE" speedFactor="1.00" vaporized=""/>
    <tripinfo id="32" depart="34.00" departLane="5669962#0_0" departPos="5.10" departSpeed="0.00" departDelay="2.00" arrival="192.00" arrivalLane="118400726#18_1" arrivalPos="84.40" arrivalSpeed="11.09" duration="158.00" routeLength="1269.58" waitingTime="14.00" waitingCount="3" stopTime="0.00" timeLoss="44.24" rerouteNo="0" devices="tripinfo_32" vType="DEFAULT_VEHTYPE" speedFactor="1.00" vaporized=""/>
    <tripinfo id="115" depart="115.00" departLane="5671659#0_0" departPos="5.10" departSpeed="0.00" departDelay="0.00" arrival="193.00" arrivalLane="561084838#9_0" arrivalPos="6.97" arrivalSpeed="11.13" duration="78.00" routeLength="744.93" waitingTime="0.00" waitingCount="0" stopTime="0.00" timeLoss="10.75" rerouteNo="0" devices="tripinfo_115" vType="DEFAULT_VEHTYPE" speedFactor="1.00" vaporized=""/>
    <tripinfo id="125" depart="125.00" departLane="420358898#0_0" departPos="5.10" departSpeed="0.00" departDelay="0.00" arrival="193.00" arrivalLane="464522037#7_0" arrivalPos="81.64" arrivalSpeed="10.17" duration="68.00" routeLength="534.85" waitingTime="6.00" waitingCount="2" stopTime="0.00" timeLoss="20.04" rerouteNo="0" devices="tripinfo_125" vType="DEFAULT_VEHTYPE" speedFactor="1.00" vaporized=""/>