<?xml version="1.0" encoding="UTF-8"?>

<!-- generated on 06/17/18 11:20:47 by Eclipse SUMO GUI Version v0_32_0+1428-4ab3f27cbd
<configuration xmlns:xsi="http://www.w3.org/2001/XMLSchema-instance" xsi:noNamespaceSchemaLocation="http://sumo.dlr.de/xsd/sumoConfiguration.xsd">

    <input>
        <net-file value="./New_York/New_York.net.xml"/>
        <route-files value="./New_York/routes.rou.alt.xml"/>
        <additional-files value="./New_York/e2.add.xml"/>
    </input>

    <output>
        <tripinfo-output value="./New_York/New_York_tripinfo-output_MixedScheduler.xml"/>
    </output>

    <traci_server>
        <remote-port value="53374"/>
    </traci_server>

</configuration>
-->

<tripinfos xmlns:xsi="http://www.w3.org/2001/XMLSchema-instance" xsi:noNamespaceSchemaLocation="http://sumo.dlr.de/xsd/tripinfo_file.xsd">
    <tripinfo id="4" depart="4.00" departLane="-5672518_0" departPos="5.10" departSpeed="0.00" departDelay="0.00" arrival="19.00" arrivalLane="5672178#3_0" arrivalPos="40.50" arrivalSpeed="11.05" duration="15.00" routeLength="110.82" waitingTime="0.00" waitingCount="0" stopTime="0.00" timeLoss="2.59" rerouteNo="0" devices="tripinfo_4" vType="DEFAULT_VEHTYPE" speedFactor="1.00" vaporized=""/>
    <tripinfo id="9" depart="9.00" departLane="-5672518_0" departPos="5.10" departSpeed="0.00" departDelay="0.00" arrival="20.00" arrivalLane="5672518_0" arrivalPos="24.90" arrivalSpeed="5.51" duration="11.00" routeLength="49.37" waitingTime="0.00" waitingCount="0" stopTime="0.00" timeLoss="1.67" rerouteNo="0" devices="tripinfo_9" vType="DEFAULT_VEHTYPE" speedFactor="1.00" vaporized=""/>
    <tripinfo id="58" depart="58.00" departLane="-561084838#9_0" departPos="5.10" departSpeed="0.00" departDelay="0.00" arrival="63.00" arrivalLane="561084838#9_2" arrivalPos="6.97" arrivalSpeed="5.91" duration="5.00" routeLength="13.52" waitingTime="0.00" waitingCount="0" stopTime="0.00" timeLoss="3.77" rerouteNo="0" devices="tripinfo_58" vType="DEFAULT_VEHTYPE" speedFactor="1.00" vaporized=""/>
    <tripinfo id="5" depart="5.00" departLane="5673089#0_0" departPos="5.10" departSpeed="0.00" departDelay="0.00" arrival="67.00" arrivalLane="46139037#5_1" arrivalPos="6.06" arrivalSpeed="10.19" duration="62.00" routeLength="581.86" waitingTime="0.00" waitingCount="0" stopTime="0.00" timeLoss="9.41" rerouteNo="0" devices="tripinfo_5" vType="DEFAULT_VEHTYPE" speedFactor="1.00" vaporized=""/>
    <tripinfo id="15" depart="15.00" departLane="5669962#0_0" departPos="5.10" departSpeed="0.00" departDelay="0.00" arrival="94.00" arrivalLane="561084838#9_1" arrivalPos="6.97" arrivalSpeed="10.31" duration="79.00" routeLength="696.07" waitingTime="5.00" waitingCount="1" stopTime="0.00" timeLoss="16.30" rerouteNo="0" devices="tripinfo_15" vType="DEFAULT_VEHTYPE" speedFactor="1.00" vaporized=""/>
    <tripinfo id="30" depart="30.00" departLane="165777951#0_0" departPos="5.10" departSpeed="0.00" departDelay="0.00" arrival="97.00" arrivalLane="5670594#2_0" arrivalPos="46.32" arrivalSpeed="10.02" duration="67.00" routeLength="222.20" waitingTime="34.00" waitingCount="2" stopTime="0.00" timeLoss="46.98" rerouteNo="0" devices="tripinfo_30" vType="DEFAULT_VEHTYPE" speedFactor="1.00" vaporized=""/>
    <tripinfo id="19" depart="19.00" departLane="-561084838#9_0" departPos="5.10" departSpeed="0.00" departDelay="0.00" arrival="104.00" arrivalLane="46139037#5_0" arrivalPos="6.06" arrivalSpeed="10.68" duration="85.00" routeLength="418.68" waitingTime="36.00" waitingCount="1" stopTime="0.00" timeLoss="46.84" rerouteNo="0" devices="tripinfo_19" vType="DEFAULT_VEHTYPE" speedFactor="1.00" vaporized=""/>
    <tripinfo id="39" depart="39.00" departLane="5672184#0_0" departPos="5.10" departSpeed="0.00" departDelay="0.00" arrival="108.00" arrivalLane="118400726#18_0" arrivalPos="84.40" arrivalSpeed="10.08" duration="69.00" routeLength="462.35" waitingTime="18.00" waitingCount="1" stopTime="0.00" timeLoss="27.24" rerouteNo="0" devices="tripinfo_39" vType="DEFAULT_VEHTYPE" speedFactor="1.00" vaporized=""/>
    <tripinfo id="2" depart="2.00" departLane="5670172#0_0" departPos="5.10" departSpeed="0.00" departDelay="0.00" arrival="108.00" arrivalLane="25199883#5_0" arrivalPos="164.90" arrivalSpeed="11.06" duration="106.00" routeLength="547.09" waitingTime="43.00" waitingCount="1" stopTime="0.00" timeLoss="56.47" rerouteNo="0" devices="tripinfo_2" vType="DEFAULT_VEHTYPE" speedFactor="1.00" vaporized=""/>
    <tripinfo id="54" depart="54.00" departLane="-561084838#9_0" departPos="5.10" departSpeed="0.00" departDelay="0.00" arrival="110.00" arrivalLane="5672178#3_0" arrivalPos="40.50" arrivalSpeed="10.96" duration="56.00" routeLength="447.40" waitingTime="3.00" waitingCount="1" stopTime="0.00" timeLoss="15.30" rerouteNo="0" devices="tripinfo_54" vType="DEFAULT_VEHTYPE" speedFactor="1.00" vaporized=""/>
    <tripinfo id="14" depart="16.00" departLane="479642039#0_0" departPos="5.10" departSpeed="0.00" departDelay="2.00" arrival="115.00" arrivalLane="5672178#3_0" arrivalPos="40.50" arrivalSpeed="10.66" duration="99.00" routeLength="732.00" waitingTime="15.00" waitingCount="2" stopTime="0.00" timeLoss="33.12" rerouteNo="0" devices="tripinfo_14" vType="DEFAULT_VEHTYPE" speedFactor="1.00" vaporized=""/>
    <tripinfo id="0" depart="0.00" departLane="352705238#0_0" departPos="5.10" departSpeed="0.00" departDelay="0.00" arrival="116.00" arrivalLane="464522037#7_0" arrivalPos="81.64" arrivalSpeed="9.97" duration="116.00" routeLength="550.07" waitingTime="53.00" waitingCount="2" stopTime="0.00" timeLoss="66.64" rerouteNo="0" devices="tripinfo_0" vType="DEFAULT_VEHTYPE" speedFactor="1.00" vaporized=""/>
    <tripinfo id="51" depart="51.00" departLane="352705238#0_0" departPos="5.10" departSpeed="0.00" departDelay="0.00" arrival="116.00" arrivalLane="464522037#7_1" arrivalPos="81.64" arrivalSpeed="11.01" duration="65.00" routeLength="550.07" waitingTime="5.00" waitingCount="1" stopTime="0.00" timeLoss="14.98" rerouteNo="0" devices="tripinfo_51" vType="DEFAULT_VEHTYPE" speedFactor="1.00" vaporized=""/>
    <tripinfo id="70" depart="70.00" departLane="118400726#0_0" departPos="5.10" departSpeed="0.00" departDelay="0.00" arrival="116.00" arrivalLane="5669962#10_0" arrivalPos="217.18" arrivalSpeed="10.09" duration="46.00" routeLength="378.35" waitingTime="1.00" waitingCount="1" stopTime="0.00" timeLoss="11.39" rerouteNo="0" devices="tripinfo_70" vType="DEFAULT_VEHTYPE" speedFactor="1.00" vaporized=""/>
    <tripinfo id="44" depart="44.00" departLane="5671659#0_0" departPos="5.10" departSpeed="0.00" departDelay="0.00" arrival="128.00" arrivalLane="479642040#3_0" arrivalPos="218.99" arrivalSpeed="11.09" duration="84.00" routeLength="669.85" waitingTime="14.00" waitingCount="1" stopTime="0.00" timeLoss="23.42" rerouteNo="0" devices="tripinfo_44" vType="DEFAULT_VEHTYPE" speedFactor="1.00" vaporized=""/>
    <tripinfo id="65" depart="65.00" departLane="118400726#0_0" departPos="5.10" departSpeed="0.00" departDelay="0.00" arrival="128.00" arrivalLane="5670232#5_0" arrivalPos="216.80" arrivalSpeed="10.33" duration="63.00" routeLength="526.87" waitingTime="6.00" waitingCount="1" stopTime="0.00" timeLoss="15.49" rerouteNo="0" devices="tripinfo_65" vType="DEFAULT_VEHTYPE" speedFactor="1.00" vaporized=""/>
    <tripinfo id="13" depart="13.00" departLane="479642039#0_0" departPos="5.10" departSpeed="0.00" departDelay="0.00" arrival="128.00" arrivalLane="5673093#4_0" arrivalPos="219.02" arrivalSpeed="10.56" duration="115.00" routeLength="675.20" waitingTime="39.00" waitingCount="2" stopTime="0.00" timeLoss="54.57" rerouteNo="0" devices="tripinfo_13" vType="DEFAULT_VEHTYPE" speedFactor="1.00" vaporized=""/>
    <tripinfo id="28" depart="29.00" departLane="479642039#0_0" departPos="5.10" departSpeed="0.00" departDelay="1.00" arrival="131.00" arrivalLane="5673093#4_0" arrivalPos="219.02" arrivalSpeed="10.66" duration="102.00" routeLength="675.20" waitingTime="25.00" waitingCount="2" stopTime="0.00" timeLoss="40.82" rerouteNo="0" devices="tripinfo_28" vType="DEFAULT_VEHTYPE" speedFactor="1.00" vaporized=""/>
    <tripinfo id="16" depart="16.00" departLane="165777951#0_0" departPos="5.10" departSpeed="0.00" departDelay="0.00" arrival="132.00" arrivalLane="561084838#9_0" arrivalPos="6.97" arrivalSpeed="10.89" duration="116.00" routeLength="858.93" waitingTime="18.00" waitingCount="2" stopTime="0.00" timeLoss="38.44" rerouteNo="0" devices="tripinfo_16" vType="DEFAULT_VEHTYPE" speedFactor="1.00" vaporized=""/>
    <tripinfo id="23" depart="23.00" departLane="165777951#0_0" departPos="5.10" departSpeed="0.00" departDelay="0.00" arrival="134.00" arrivalLane="561084838#9_0" arrivalPos="6.97" arrivalSpeed="10.33" duration="111.00" routeLength="858.93" waitingTime="11.00" waitingCount="1" stopTime="0.00" timeLoss="33.55" rerouteNo="0" devices="tripinfo_23" vType="DEFAULT_VEHTYPE" speedFactor="1.00" vaporized=""/>
    <tripinfo id="95" depart="95.00" departLane="352705238#0_0" departPos="5.10" departSpeed="0.00" departDelay="0.00" arrival="135.00" arrivalLane="25199883#5_0" arrivalPos="164.90" arrivalSpeed="10.26" duration="40.00" routeLength="386.61" waitingTime="0.00" waitingCount="0" stopTime="0.00" timeLoss="4.73" rerouteNo="0" devices="tripinfo_95" vType="DEFAULT_VEHTYPE" speedFactor="1.00" vaporized=""/>
    <tripinfo id="37" depart="37.00" departLane="165777951#0_0" departPos="5.10" departSpeed="0.00" departDelay="0.00" arrival="136.00" arrivalLane="561084838#9_0" arrivalPos="6.97" arrivalSpeed="11.11" duration="99.00" routeLength="858.93" waitingTime="0.00" waitingCount="0" stopTime="0.00" timeLoss="21.88" rerouteNo="0" devices="tripinfo_37" vType="DEFAULT_VEHTYPE" speedFactor="1.00" vaporized=""/>
    <tripinfo id="52" depart="52.00" departLane="420358898#0_0" departPos="5.10" departSpeed="0.00" departDelay="0.00" arrival="142.00" arrivalLane="5670594#2_0" arrivalPos="46.32" arrivalSpeed="10.59" duration="90.00" routeLength="337.87" waitingTime="46.00" waitingCount="2" stopTime="0.00" timeLoss="59.49" rerouteNo="0" devices="tripinfo_52" vType="DEFAULT_VEHTYPE" speedFactor="1.00" vaporized=""/>
    <tripinfo id="92" depart="92.00" departLane="420358898#0_0" departPos="5.10" departSpeed="0.00" departDelay="0.00" arrival="144.00" arrivalLane="5670594#2_0" arrivalPos="46.32" arrivalSpeed="10.59" duration="52.00" routeLength="337.87" waitingTime="12.00" waitingCount="1" stopTime="0.00" timeLoss="21.63" rerouteNo="0" devices="tripinfo_92" vType="DEFAULT_VEHTYPE" speedFactor="1.00" vaporized=""/>
    <tripinfo id="38" depart="38.00" departLane="421825692#0_0" departPos="5.10" departSpeed="0.00" departDelay="0.00" arrival="145.00" arrivalLane="46139037#5_1" arrivalPos="6.06" arrivalSpeed="9.90" duration="107.00" routeLength="425.49" waitingTime="48.00" waitingCount="3" stopTime="0.00" timeLoss="68.31" rerouteNo="0" devices="tripinfo_38" vType="DEFAULT_VEHTYPE" speedFactor="1.00" vaporized=""/>
    <tripinfo id="109" depart="109.00" departLane="420358898#0_0" departPos="5.10" departSpeed="0.00" departDelay="0.00" arrival="146.00" arrivalLane="5670594#2_0" arrivalPos="46.32" arrivalSpeed="9.90" duration="37.00" routeLength="337.87" waitingTime="0.00" waitingCount="0" stopTime="0.00" timeLoss="6.67" rerouteNo="0" devices="tripinfo_109" vType="DEFAULT_VEHTYPE" speedFactor="1.00" vaporized=""/>
    <tripinfo id="66" depart="66.00" departLane="421825692#0_0" departPos="5.10" departSpeed="0.00" departDelay="0.00" arrival="148.00" arrivalLane="561084838#9_1" arrivalPos="6.97" arrivalSpeed="10.54" duration="82.00" routeLength="546.49" waitingTime="17.00" waitingCount="2" stopTime="0.00" timeLoss="32.49" rerouteNo="0" devices="tripinfo_66" vType="DEFAULT_VEHTYPE" speedFactor="1.00" vaporized=""/>
    <tripinfo id="53" depart="53.00" departLane="5670172#0_0" departPos="5.10" departSpeed="0.00" departDelay="0.00" arrival="157.00" arrivalLane="46139037#5_1" arrivalPos="6.06" arrivalSpeed="10.89" duration="104.00" routeLength="553.26" waitingTime="43.00" waitingCount="1" stopTime="0.00" timeLoss="53.79" rerouteNo="0" devices="tripinfo_53" vType="DEFAULT_VEHTYPE" speedFactor="1.00" vaporized=""/>
    <tripinfo id="40" depart="42.00" departLane="5672184#0_0" departPos="5.10" departSpeed="0.00" departDelay="2.00" arrival="159.00" arrivalLane="479642040#3_1" arrivalPos="218.99" arrivalSpeed="10.21" duration="117.00" routeLength="951.32" waitingTime="14.00" waitingCount="1" stopTime="0.00" timeLoss="31.75" rerouteNo="0" devices="tripinfo_40" vType="DEFAULT_VEHTYPE" speedFactor="1.00" vaporized=""/>
    <tripinfo id="1" depart="1.00" departLane="165777951#0_0" departPos="5.10" departSpeed="0.00" departDelay="0.00" arrival="159.00" arrivalLane="479642040#3_0" arrivalPos="218.99" arrivalSpeed="10.36" duration="158.00" routeLength="756.03" waitingTime="71.00" waitingCount="2" stopTime="0.00" timeLoss="90.19" rerouteNo="0" devices="tripinfo_1" vType="DEFAULT_VEHTYPE" speedFactor="1.00" vaporized=""/>
    <tripinfo id="18" depart="18.00" departLane="125528659#0_0" departPos="5.10" departSpeed="0.00" departDelay="0.00" arrival="159.00" arrivalLane="5673093#4_0" arrivalPos="219.02" arrivalSpeed="11.07" duration="141.00" routeLength="909.05" waitingTime="39.00" waitingCount="3" stopTime="0.00" timeLoss="59.38" rerouteNo="0" devices="tripinfo_18" vType="DEFAULT_VEHTYPE" speedFactor="1.00" vaporized=""/>
    <tripinfo id="42" depart="42.00" departLane="165777951#0_0" departPos="5.10" departSpeed="0.00" departDelay="0.00" arrival="159.00" arrivalLane="5669962#10_0" arrivalPos="217.18" arrivalSpeed="10.63" duration="117.00" routeLength="987.64" waitingTime="0.00" waitingCount="0" stopTime="0.00" timeLoss="28.48" rerouteNo="0" devices="tripinfo_42" vType="DEFAULT_VEHTYPE" speedFactor="1.00" vaporized=""/>
    <tripinfo id="21" depart="21.00" departLane="5673089#0_0" departPos="5.10" departSpeed="0.00" departDelay="0.00" arrival="159.00" arrivalLane="5670232#5_0" arrivalPos="216.80" arrivalSpeed="11.18" duration="138.00" routeLength="1061.82" waitingTime="29.00" waitingCount="1" stopTime="0.00" timeLoss="42.80" rerouteNo="0" devices="tripinfo_21" vType="DEFAULT_VEHTYPE" speedFactor="1.00" vaporized=""/>
    <tripinfo id="67" depart="67.00" departLane="352705238#0_0" departPos="5.10" departSpeed="0.00" departDelay="0.00" arrival="161.00" arrivalLane="46139037#5_1" arrivalPos="6.06" arrivalSpeed="10.15" duration="94.00" routeLength="702.46" waitingTime="9.00" waitingCount="1" stopTime="0.00" timeLoss="30.85" rerouteNo="0" devices="tripinfo_67" vType="DEFAULT_VEHTYPE" speedFactor="1.00" vaporized=""/>
    <tripinfo id="49" depart="49.00" departLane="125528659#0_0" departPos="5.10" departSpeed="0.00" departDelay="0.00" arrival="161.00" arrivalLane="5673093#4_0" arrivalPos="219.02" arrivalSpeed="10.95" duration="112.00" routeLength="909.05" waitingTime="13.00" waitingCount="2" stopTime="0.00" timeLoss="30.35" rerouteNo="0" devices="tripinfo_49" vType="DEFAULT_VEHTYPE" speedFactor="1.00" vaporized=""/>
    <tripinfo id="34" depart="34.00" departLane="479642039#0_0" departPos="5.10" departSpeed="0.00" departDelay="0.00" arrival="161.00" arrivalLane="5670232#5_0" arrivalPos="216.80" arrivalSpeed="10.93" duration="127.00" routeLength="949.83" waitingTime="26.00" waitingCount="2" stopTime="0.00" timeLoss="41.93" rerouteNo="0" devices="tripinfo_34" vType="DEFAULT_VEHTYPE" speedFactor="1.00" vaporized=""/>
    <tripinfo id="43" depart="45.00" departLane="165777951#0_0" departPos="5.10" departSpeed="0.00" departDelay="2.00" arrival="162.00" arrivalLane="5669962#10_0" arrivalPos="217.18" arrivalSpeed="10.71" duration="117.00" routeLength="987.64" waitingTime="1.00" waitingCount="1" stopTime="0.00" timeLoss="28.43" rerouteNo="0" devices="tripinfo_43" vType="DEFAULT_VEHTYPE" speedFactor="1.00" vaporized=""/>
    <tripinfo id="8" depart="8.00" departLane="-561084838#9_0" departPos="5.10" departSpeed="0.00" departDelay="0.00" arrival="164.00" arrivalLane="5670232#5_0" arrivalPos="216.80" arrivalSpeed="10.58" duration="156.00" routeLength="826.31" waitingTime="60.00" waitingCount="2" stopTime="0.00" timeLoss="81.24" rerouteNo="0" devices="tripinfo_8" vType="DEFAULT_VEHTYPE" speedFactor="1.00" vaporized=""/>
    <tripinfo id="31" depart="31.00" departLane="5669962#0_0" departPos="5.10" departSpeed="0.00" departDelay="0.00" arrival="166.00" arrivalLane="479642040#3_0" arrivalPos="218.99" arrivalSpeed="9.94" duration="135.00" routeLength="1189.94" waitingTime="6.00" waitingCount="2" stopTime="0.00" timeLoss="27.74" rerouteNo="0" devices="tripinfo_31" vType="DEFAULT_VEHTYPE" speedFactor="1.00" vaporized=""/>
    <tripinfo id="75" depart="75.00" departLane="5670172#0_0" departPos="5.10" departSpeed="0.00" departDelay="0.00" arrival="166.00" arrivalLane="5672178#3_0" arrivalPos="40.50" arrivalSpeed="10.93" duration="91.00" routeLength="626.85" waitingTime="16.00" waitingCount="2" stopTime="0.00" timeLoss="34.06" rerouteNo="0" devices="tripinfo_75" vType="DEFAULT_VEHTYPE" speedFactor="1.00" vaporized=""/>
    <tripinfo id="76" depart="78.00" departLane="5670172#0_0" departPos="5.10" departSpeed="0.00" departDelay="2.00" arrival="170.00" arrivalLane="5672178#3_0" arrivalPos="40.50" arrivalSpeed="11.02" duration="92.00" routeLength="626.85" waitingTime="8.00" waitingCount="2" stopTime="0.00" timeLoss="35.47" rerouteNo="0" devices="tripinfo_76" vType="DEFAULT_VEHTYPE" speedFactor="1.00" vaporized=""/>
    <tripinfo id="12" depart="12.00" departLane="5669962#0_0" departPos="5.10" departSpeed="0.00" departDelay="0.00" arrival="173.00" arrivalLane="5673093#4_0" arrivalPos="219.02" arrivalSpeed="10.84" duration="161.00" routeLength="1336.49" waitingTime="19.00" waitingCount="2" stopTime="0.00" timeLoss="40.69" rerouteNo="0" devices="tripinfo_12" vType="DEFAULT_VEHTYPE" speedFactor="1.00" vaporized=""/>
    <tripinfo id="152" depart="152.00" departLane="352705238#0_0" departPos="5.10" departSpeed="0.00" departDelay="0.00" arrival="175.00" arrivalLane="5672910#2_0" arrivalPos="73.27" arrivalSpeed="11.16" duration="23.00" routeLength="217.95" waitingTime="0.00" waitingCount="0" stopTime="0.00" timeLoss="3.34" rerouteNo="0" devices="tripinfo_152" vType="DEFAULT_VEHTYPE" speedFactor="1.00" vaporized=""/>
    <tripinfo id="97" depart="97.00" departLane="-561084838#9_0" departPos="5.10" departSpeed="0.00" departDelay="0.00" arrival="177.00" arrivalLane="5669962#10_0" arrivalPos="217.18" arrivalSpeed="10.28" duration="80.00" routeLength="678.69" waitingTime="7.00" waitingCount="1" stopTime="0.00" timeLoss="18.63" rerouteNo="0" devices="tripinfo_97" vType="DEFAULT_VEHTYPE" speedFactor="1.00" vaporized=""/>
    <tripinfo id="33" depart="33.00" departLane="421825692#0_0" departPos="5.10" departSpeed="0.00" departDelay="0.00" arrival="177.00" arrivalLane="5670232#5_0" arrivalPos="216.80" arrivalSpeed="10.48" duration="144.00" routeLength="888.33" waitingTime="49.00" waitingCount="2" stopTime="0.00" timeLoss="64.07" rerouteNo="0" devices="tripinfo_33" vType="DEFAULT_VEHTYPE" speedFactor="1.00" vaporized=""/>
    <tripinfo id="20" depart="21.00" departLane="125528659#0_0" departPos="5.10" departSpeed="0.00" departDelay="1.00" arrival="186.00" arrivalLane="5670594#2_1" arrivalPos="46.32" arrivalSpeed="10.00" duration="165.00" routeLength="546.39" waitingTime="91.00" waitingCount="3" stopTime="0.00" timeLoss="116.11" rerouteNo="0" devices="tripinfo_20" vType="DEFAULT_VEHTYPE" speedFactor="1.00" vaporized=""/>
    <tripinfo id="3" depart="3.00" departLane="118400726#0_0" departPos="5.10" departSpeed="0.00" departDelay="0.00" arrival="187.00" arrivalLane="5670594#2_0" arrivalPos="46.32" arrivalSpeed="10.72" duration="184.00" routeLength="1040.76" waitingTime="65.00" waitingCount="2" stopTime="0.00" timeLoss="90.17" rerouteNo="0" devices="tripinfo_3" vType="DEFAULT_VEHTYPE" speedFactor="1.00" vaporized=""/>
    <tripinfo id="32" depart="34.00" departLane="5669962#0_0" departPos="5.10" departSpeed="0.00" departDelay="2.00" arrival="190.00" arrivalLane="118400726#18_0" arrivalPos="84.40" arrivalSpeed="10.94" duration="156.00" routeLength="1269.58" waitingTime="14.00" waitingCount="2" stopTime="0.00" timeLoss="42.01" rerouteNo="0" devices="tripinfo_32" vType="DEFAULT_VEHTYPE" speedFactor="1.00" vaporized=""/>
    <tripinfo id="47" depart="47.00" departLane="5669962#0_0" departPos="5.10" departSpeed="0.00" departDelay="0.00" arrival="195.00" arrivalLane="5670594#2_0" arrivalPos="46.32" arrivalSpeed="11.07" duration="148.00" routeLength="1117.91" waitingTime="27.00" waitingCount="2" stopTime="0.00" timeLoss="47.65" rerouteNo="0" devices="tripinfo_47" vType="DEFAULT_VEHTYPE" speedFactor="1.00" vaporized=""/>
    <tripinfo id="112" depart="112.00" departLane="5672184#0_0" departPos="5.10" departSpeed="0.00" departDelay="0.00" arrival="198.00" arrivalLane="118400726#18_0" arrivalPos="84.40" arrivalSpeed="10.64" duration="86.00" routeLength="462.35" waitingTime="28.00" waitingCount="2" stopTime="0.00" timeLoss="43.80" rerouteNo="0" devices="tripinfo_112" vType="DEFAULT_VEHTYPE" speedFactor="1.00" vaporized=""/>
    <tripinfo id="78" depart="78.00" departLane="5673089#0_0" departPos="5.10" departSpeed="0.00" departDelay="0.00" arrival="198.00" arrivalLane="25199883#5_1" arrivalPos="164.90" arrivalSpeed="10.42" duration="120.00" routeLength="821.60" waitingTime="28.00" waitingCount="2" stopTime="0.00" timeLoss="45.86" rerouteNo="0" devices="tripinfo_78" vType="DEFAULT_VEHTYPE" speedFactor="1.00" vaporized=""/>
    <tripinfo id="123" depart="123.00" departLane="352705238#0_0" departPos="5.10" departSpeed="0.00" departDelay="0.00" arrival="198.00" arrivalLane="25199883#5_0" arrivalPos="164.90" arrivalSpeed="10.41" duration="75.00" routeLength="386.61" waitingTime="30.00" waitingCount="1" stopTime="0.00" timeLoss="39.93" rerouteNo="0" devices="tripinfo_123" vType="DEFAULT_VEHTYPE" speedFactor="1.00" vaporized=""/>
    <tripinfo id="71" depart="71.00" departLane="5669962#0_0" departPos="5.10" departSpeed="0.00" departDelay="0.00" arrival="198.00" arrivalLane="5672518_0" arrivalPos="24.90" arrivalSpeed="5.10" duration="127.00" routeLength="593.49" waitingTime="53.00" waitingCount="2" stopTime="0.00" timeLoss="70.92" rerouteNo="0" devices="tripinfo_71" vType="DEFAULT_VEHTYPE" speedFactor="1.00" vaporized=""/>
    <tripinfo id="115" depart="115.00" departLane="5671659#0_0" departPos="5.10" departSpeed="0.00" departDelay="0.00" arrival="200.00" arrivalLane="561084838#9_0" arrivalPos="6.97" arrivalSpeed="10.96" duration="85.00" routeLength="744.93" waitingTime="2.00" waitingCount="1" stopTime="0.00" timeLoss="17.81" rerouteNo="0" devices="tripinfo_115" vType="DEFAULT_VEHTYPE" speedFactor="1.00" vaporized=""/>
    <tripinfo id="35" depart="35.00" departLane="5673089#0_0" departPos="5.10" departSpeed="0.00" departDelay="0.00" arrival="201.00" arrivalLane="5670594#2_1" arrivalPos="46.32" arrivalSpeed="10.05" duration="166.00" routeLength="1133.87" waitingTime="46.00" waitingCount="2" stopTime="0.00" timeLoss="64.45" rerouteNo="0" devices="tripinfo_35" vType="DEFAULT_VEHTYPE" speedFactor="1.00" vaporized=""/>
    <tripinfo id="29" depart="29.00" departLane="5673089#0_0" departPos="5.10" departSpeed="0.00" departDelay="0.00" arrival="201.00" arrivalLane="5670594#2_0" arrivalPos="46.32" arrivalSpeed="11.17" duration="172.00" routeLength="1133.87" waitingTime="50.00" waitingCount="3" stopTime="0.00" timeLoss="70.17" rerouteNo="0" devices="tripinfo_29" vType="DEFAULT_VEHTYPE" speedFactor="1.00" vaporized=""/>
    <tripinfo id="74" depart="77.00" departLane="5669962#0_0" departPos="5.10" departSpeed="0.00" departDelay="3.00" arrival="201.00" arrivalLane="5672518_0" arrivalPos="24.90" arrivalSpeed="4.63" duration="124.00" routeLength="593.49" waitingTime="48.00" waitingCount="2" stopTime="0.00" timeLoss="67.92" rerouteNo="0" devices="tripinfo_74" vType="DEFAULT_VEHTYPE" speedFactor="1.00" vaporized=""/>
    <tripinfo id="148" depart="148.00" departLane="-561084838#9_0" departPos="5.10" departSpeed="0.00" departDelay="0.00" arrival="207.00" arrivalLane="5672518_0" arrivalPos="24.90" arrivalSpeed="5.36" duration="59.00" routeLength="381.89" waitingTime="4.00" waitingCount="2" stopTime="0.00" timeLoss="21.59" rerouteNo="0" devices="tripinfo_148" vType="DEFAULT_VEHTYPE" speedFactor="1.00" vaporized=""/>
    <tripinfo id="198" depart="198.00" departLane="-5672518_0" departPos="5.10" departSpeed="0.00" departDelay="0.00" arrival="210.00" arrivalLane="46139037#5_0" arrivalPos="6.06" arrivalSpeed="10.05" duration="12.00" routeLength="82.10" waitingTime="0.00" waitingCount="0" stopTime="0.00" timeLoss="2.41" rerouteNo="0" devices="tripinfo_198" vType="DEFAULT_VEHTYPE" speedFactor="1.00" vaporized=""/>
    <tripinfo id="160" depart="160.00" departLane="-561084838#9_0" departPos="5.10" departSpeed="0.00" departDelay="0.00" arrival="210.00" arrivalLane="5672518_0" arrivalPos="24.90" arrivalSpeed="5.51" duration="50.00" routeLength="381.89" waitingTime="0.00" waitingCount="0" stopTime="0.00" timeLoss="12.64" rerouteNo="0" devices="tripinfo_160" vType="DEFAULT_VEHTYPE" speedFactor="1.00" vaporized=""/>
    <tripinfo id="41" depart="41.00" departLane="5670172#0_0" departPos="5.10" departSpeed="0.00" departDelay="0.00" arrival="213.00" arrivalLane="5672518_0" arrivalPos="24.90" arrivalSpeed="5.41" duration="172.00" routeLength="745.00" waitingTime="79.00" waitingCount="3" stopTime="0.00" timeLoss="102.35" rerouteNo="0" devices="tripinfo_41" vType="DEFAULT_VEHTYPE" speedFactor="1.00" vaporized=""/>
    <tripinfo id="62" depart="62.00" departLane="352705238#0_0" departPos="5.10" departSpeed="0.00" departDelay="0.00" arrival="216.00" arrivalLane="5672518_0" arrivalPos="24.90" arrivalSpeed="5.20" duration="154.00" routeLength="894.20" waitingTime="43.00" waitingCount="4" stopTime="0.00" timeLoss="71.11" rerouteNo="0" devices="tripinfo_62" vType="DEFAULT_VEHTYPE" speedFactor="1.00" vaporized=""/>
    <tripinfo id="145" depart="145.00" departLane="5669962#0_0" departPos="5.10" departSpeed="0.00" departDelay="0.00" arrival="219.00" arrivalLane="561084838#9_1" arrivalPos="6.97" arrivalSpeed="10.66" duration="74.00" routeLength="696.07" waitingTime="0.00" waitingCount="0" stopTime="0.00" timeLoss="11.60" rerouteNo="0" devices="tripinfo_145" vType="DEFAULT_VEHTYPE" speedFactor="1.00" vaporized=""/>
    <tripinfo id="59" depart="59.00" departLane="5672184#0_0" departPos="5.10" departSpeed="0.00" departDelay="0.00" arrival="219.00" arrivalLane="5672518_0" arrivalPos="24.90" arrivalSpeed="4.49" duration="160.00" routeLength="821.45" waitingTime="60.00" waitingCount="2" stopTime="0.00" timeLoss="83.15" rerouteNo="0" devices="tripinfo_59" vType="DEFAULT_VEHTYPE" speedFactor="1.00" vaporized=""/>
    <tripinfo id="102" depart="102.00" departLane="421825692#0_0" departPos="5.10" departSpeed="0.00" departDelay="0.00" arrival="219.00" arrivalLane="5672910#2_0" arrivalPos="73.27" arrivalSpeed="9.93" duration="117.00" routeLength="665.13" waitingTime="46.00" waitingCount="1" stopTime="0.00" timeLoss="56.66" rerouteNo="0" devices="tripinfo_102" vType="DEFAULT_VEHTYPE" speedFactor="1.00" vaporized=""/>
    <tripinfo id="17" depart="17.00" departLane="-5672518_0" departPos="5.10" departSpeed="0.00" departDelay="0.00" arrival="220.00" arrivalLane="5670594#2_0" arrivalPos="46.32" arrivalSpeed="10.00" duration="203.00" routeLength="1024.50" waitingTime="77.00" waitingCount="5" stopTime="0.00" timeLoss="109.10" rerouteNo="0" devices="tripinfo_17" vType="DEFAULT_VEHTYPE" speedFactor="1.00" vaporized=""/>
    <tripinfo id="206" depart="206.00" departLane="-5672518_0" departPos="5.10" departSpeed="0.00" departDelay="0.00" arrival="222.00" arrivalLane="5672518_0" arrivalPos="24.90" arrivalSpeed="4.68" duration="16.00" routeLength="49.37" waitingTime="3.00" waitingCount="1" stopTime="0.00" timeLoss="6.38" rerouteNo="0" devices="tripinfo_206" vType="DEFAULT_VEHTYPE" speedFactor="1.00" vaporized=""/>
    <tripinfo id="119" depart="121.00" departLane="5671659#0_0" departPos="5.10" departSpeed="0.00" departDelay="2.00" arrival="226.00" arrivalLane="118400726#18_0" arrivalPos="84.40" arrivalSpeed="9.99" duration="105.00" routeLength="765.66" waitingTime="25.00" waitingCount="1" stopTime="0.00" timeLoss="36.34" rerouteNo="0" devices="tripinfo_119" vType="DEFAULT_VEHTYPE" speedFactor="1.00" vaporized=""/>
    <tripinfo id="221" depart="222.00" departLane="-561084838#9_0" departPos="5.10" departSpeed="0.00" departDelay="1.00" arrival="227.00" arrivalLane="561084838#9_2" arrivalPos="6.97" arrivalSpeed="6.35" duration="5.00" routeLength="13.52" waitingTime="0.00" waitingCount="0" stopTime="0.00" timeLoss="3.65" rerouteNo="0" devices="tripinfo_221" vType="DEFAULT_VEHTYPE" speedFactor="1.00" vaporized=""/>
    <tripinfo id="22" depart="23.00" departLane="125528659#0_0" departPos="5.10" departSpeed="0.00" departDelay="1.00" arrival="227.00" arrivalLane="5672518_0" arrivalPos="24.90" arrivalSpeed="5.14" duration="204.00" routeLength="945.59" waitingTime="79.00" waitingCount="5" stopTime="0.00" timeLoss="116.20" rerouteNo="0" devices="tripinfo_22" vType="DEFAULT_VEHTYPE" speedFactor="1.00" vaporized=""/>
    <tripinfo id="177" depart="177.00" departLane="118400726#0_0" departPos="5.10" departSpeed="0.00" departDelay="0.00" arrival="229.00" arrivalLane="5670232#5_0" arrivalPos="216.80" arrivalSpeed="10.42" duration="52.00" routeLength="526.87" waitingTime="0.00" waitingCount="0" stopTime="0.00" timeLoss="4.54" rerouteNo="0" devices="tripinfo_177" vType="DEFAULT_VEHTYPE" speedFactor="1.00" vaporized=""/>
    <tripinfo id="149" depart="149.00" departLane="5673089#0_0" departPos="5.10" departSpeed="0.00" departDelay="0.00" arrival="229.00" arrivalLane="5670897#1_0" arrivalPos="70.15" arrivalSpeed="10.50" duration="80.00" routeLength="725.66" waitingTime="1.00" waitingCount="1" stopTime="0.00" timeLoss="14.55" rerouteNo="0" devices="tripinfo_149" vType="DEFAULT_VEHTYPE" speedFactor="1.00" vaporized=""/>