<?xml version="1.0" encoding="UTF-8"?>

<!-- generated on 06/17/18 10:23:35 by Eclipse SUMO GUI Version v0_32_0+1428-4ab3f27cbd
<configuration xmlns:xsi="http://www.w3.org/2001/XMLSchema-instance" xsi:noNamespaceSchemaLocation="http://sumo.dlr.de/xsd/sumoConfiguration.xsd">

    <input>
        <net-file value="./New_York/New_York.net.xml"/>
        <route-files value="./New_York/routes.rou.alt.xml"/>
        <additional-files value="./New_York/e2.add.xml"/>
    </input>

    <output>
        <tripinfo-output value="./New_York/New_York_tripinfo-output_StaticScheduler.xml"/>
    </output>

    <traci_server>
        <remote-port value="53334"/>
    </traci_server>

</configuration>
-->

<tripinfos xmlns:xsi="http://www.w3.org/2001/XMLSchema-instance" xsi:noNamespaceSchemaLocation="http://sumo.dlr.de/xsd/tripinfo_file.xsd">
    <tripinfo id="4" depart="4.00" departLane="-5672518_0" departPos="5.10" departSpeed="0.00" departDelay="0.00" arrival="19.00" arrivalLane="5672178#3_0" arrivalPos="40.50" arrivalSpeed="11.05" duration="15.00" routeLength="110.82" waitingTime="0.00" waitingCount="0" stopTime="0.00" timeLoss="2.59" rerouteNo="0" devices="tripinfo_4" vType="DEFAULT_VEHTYPE" speedFactor="1.00" vaporized=""/>
    <tripinfo id="9" depart="9.00" departLane="-5672518_0" departPos="5.10" departSpeed="0.00" departDelay="0.00" arrival="20.00" arrivalLane="5672518_0" arrivalPos="24.90" arrivalSpeed="5.51" duration="11.00" routeLength="49.37" waitingTime="0.00" waitingCount="0" stopTime="0.00" timeLoss="1.67" rerouteNo="0" devices="tripinfo_9" vType="DEFAULT_VEHTYPE" speedFactor="1.00" vaporized=""/>
    <tripinfo id="58" depart="58.00" departLane="-561084838#9_0" departPos="5.10" departSpeed="0.00" departDelay="0.00" arrival="63.00" arrivalLane="561084838#9_2" arrivalPos="6.97" arrivalSpeed="6.30" duration="5.00" routeLength="13.52" waitingTime="0.00" waitingCount="0" stopTime="0.00" timeLoss="3.74" rerouteNo="0" devices="tripinfo_58" vType="DEFAULT_VEHTYPE" speedFactor="1.00" vaporized=""/>
    <tripinfo id="5" depart="5.00" departLane="5673089#0_0" departPos="5.10" departSpeed="0.00" departDelay="0.00" arrival="67.00" arrivalLane="46139037#5_1" arrivalPos="6.06" arrivalSpeed="10.19" duration="62.00" routeLength="581.86" waitingTime="0.00" waitingCount="0" stopTime="0.00" timeLoss="9.45" rerouteNo="0" devices="tripinfo_5" vType="DEFAULT_VEHTYPE" speedFactor="1.00" vaporized=""/>
    <tripinfo id="30" depart="30.00" departLane="165777951#0_0" departPos="5.10" departSpeed="0.00" departDelay="0.00" arrival="96.00" arrivalLane="5670594#2_0" arrivalPos="46.32" arrivalSpeed="11.09" duration="66.00" routeLength="222.20" waitingTime="32.00" waitingCount="2" stopTime="0.00" timeLoss="45.94" rerouteNo="0" devices="tripinfo_30" vType="DEFAULT_VEHTYPE" speedFactor="1.00" vaporized=""/>
    <tripinfo id="15" depart="15.00" departLane="5669962#0_0" departPos="5.10" departSpeed="0.00" departDelay="0.00" arrival="100.00" arrivalLane="561084838#9_0" arrivalPos="6.97" arrivalSpeed="11.16" duration="85.00" routeLength="696.07" waitingTime="7.00" waitingCount="2" stopTime="0.00" timeLoss="21.77" rerouteNo="0" devices="tripinfo_15" vType="DEFAULT_VEHTYPE" speedFactor="1.00" vaporized=""/>
    <tripinfo id="39" depart="39.00" departLane="5672184#0_0" departPos="5.10" departSpeed="0.00" departDelay="0.00" arrival="107.00" arrivalLane="118400726#18_1" arrivalPos="84.40" arrivalSpeed="10.77" duration="68.00" routeLength="462.35" waitingTime="17.00" waitingCount="1" stopTime="0.00" timeLoss="26.53" rerouteNo="0" devices="tripinfo_39" vType="DEFAULT_VEHTYPE" speedFactor="1.00" vaporized=""/>
    <tripinfo id="2" depart="2.00" departLane="5670172#0_0" departPos="5.10" departSpeed="0.00" departDelay="0.00" arrival="108.00" arrivalLane="25199883#5_0" arrivalPos="164.90" arrivalSpeed="10.70" duration="106.00" routeLength="547.09" waitingTime="43.00" waitingCount="1" stopTime="0.00" timeLoss="56.52" rerouteNo="0" devices="tripinfo_2" vType="DEFAULT_VEHTYPE" speedFactor="1.00" vaporized=""/>
    <tripinfo id="19" depart="19.00" departLane="-561084838#9_0" departPos="5.10" departSpeed="0.00" departDelay="0.00" arrival="110.00" arrivalLane="46139037#5_0" arrivalPos="6.06" arrivalSpeed="10.48" duration="91.00" routeLength="418.68" waitingTime="42.00" waitingCount="1" stopTime="0.00" timeLoss="52.95" rerouteNo="0" devices="tripinfo_19" vType="DEFAULT_VEHTYPE" speedFactor="1.00" vaporized=""/>
    <tripinfo id="54" depart="54.00" departLane="-561084838#9_0" departPos="5.10" departSpeed="0.00" departDelay="0.00" arrival="115.00" arrivalLane="5672178#3_0" arrivalPos="40.50" arrivalSpeed="10.06" duration="61.00" routeLength="447.40" waitingTime="11.00" waitingCount="1" stopTime="0.00" timeLoss="20.26" rerouteNo="0" devices="tripinfo_54" vType="DEFAULT_VEHTYPE" speedFactor="1.00" vaporized=""/>
    <tripinfo id="0" depart="0.00" departLane="352705238#0_0" departPos="5.10" departSpeed="0.00" departDelay="0.00" arrival="116.00" arrivalLane="464522037#7_0" arrivalPos="81.64" arrivalSpeed="10.27" duration="116.00" routeLength="550.07" waitingTime="52.00" waitingCount="2" stopTime="0.00" timeLoss="66.35" rerouteNo="0" devices="tripinfo_0" vType="DEFAULT_VEHTYPE" speedFactor="1.00" vaporized=""/>
    <tripinfo id="51" depart="51.00" departLane="352705238#0_0" departPos="5.10" departSpeed="0.00" departDelay="0.00" arrival="116.00" arrivalLane="464522037#7_1" arrivalPos="81.64" arrivalSpeed="10.13" duration="65.00" routeLength="550.07" waitingTime="5.00" waitingCount="1" stopTime="0.00" timeLoss="15.61" rerouteNo="0" devices="tripinfo_51" vType="DEFAULT_VEHTYPE" speedFactor="1.00" vaporized=""/>
    <tripinfo id="70" depart="70.00" departLane="118400726#0_0" departPos="5.10" departSpeed="0.00" departDelay="0.00" arrival="116.00" arrivalLane="5669962#10_0" arrivalPos="217.18" arrivalSpeed="11.01" duration="46.00" routeLength="378.35" waitingTime="3.00" waitingCount="1" stopTime="0.00" timeLoss="11.72" rerouteNo="0" devices="tripinfo_70" vType="DEFAULT_VEHTYPE" speedFactor="1.00" vaporized=""/>
    <tripinfo id="14" depart="16.00" departLane="479642039#0_0" departPos="5.10" departSpeed="0.00" departDelay="2.00" arrival="117.00" arrivalLane="5672178#3_0" arrivalPos="40.50" arrivalSpeed="10.85" duration="101.00" routeLength="732.00" waitingTime="15.00" waitingCount="2" stopTime="0.00" timeLoss="35.12" rerouteNo="0" devices="tripinfo_14" vType="DEFAULT_VEHTYPE" speedFactor="1.00" vaporized=""/>
    <tripinfo id="44" depart="44.00" departLane="5671659#0_0" departPos="5.10" departSpeed="0.00" departDelay="0.00" arrival="128.00" arrivalLane="479642040#3_0" arrivalPos="218.99" arrivalSpeed="10.26" duration="84.00" routeLength="669.85" waitingTime="12.00" waitingCount="1" stopTime="0.00" timeLoss="23.20" rerouteNo="0" devices="tripinfo_44" vType="DEFAULT_VEHTYPE" speedFactor="1.00" vaporized=""/>
    <tripinfo id="65" depart="65.00" departLane="118400726#0_0" departPos="5.10" departSpeed="0.00" departDelay="0.00" arrival="128.00" arrivalLane="5670232#5_0" arrivalPos="216.80" arrivalSpeed="10.77" duration="63.00" routeLength="526.87" waitingTime="5.00" waitingCount="1" stopTime="0.00" timeLoss="15.41" rerouteNo="0" devices="tripinfo_65" vType="DEFAULT_VEHTYPE" speedFactor="1.00" vaporized=""/>
    <tripinfo id="13" depart="13.00" departLane="479642039#0_0" departPos="5.10" departSpeed="0.00" departDelay="0.00" arrival="129.00" arrivalLane="5673093#4_0" arrivalPos="219.02" arrivalSpeed="11.07" duration="116.00" routeLength="675.20" waitingTime="40.00" waitingCount="2" stopTime="0.00" timeLoss="55.02" rerouteNo="0" devices="tripinfo_13" vType="DEFAULT_VEHTYPE" speedFactor="1.00" vaporized=""/>
    <tripinfo id="28" depart="29.00" departLane="479642039#0_0" departPos="5.10" departSpeed="0.00" departDelay="1.00" arrival="131.00" arrivalLane="5673093#4_0" arrivalPos="219.02" arrivalSpeed="10.40" duration="102.00" routeLength="675.20" waitingTime="24.00" waitingCount="2" stopTime="0.00" timeLoss="41.31" rerouteNo="0" devices="tripinfo_28" vType="DEFAULT_VEHTYPE" speedFactor="1.00" vaporized=""/>
    <tripinfo id="95" depart="95.00" departLane="352705238#0_0" departPos="5.10" departSpeed="0.00" departDelay="0.00" arrival="135.00" arrivalLane="25199883#5_0" arrivalPos="164.90" arrivalSpeed="10.61" duration="40.00" routeLength="386.61" waitingTime="0.00" waitingCount="0" stopTime="0.00" timeLoss="5.21" rerouteNo="0" devices="tripinfo_95" vType="DEFAULT_VEHTYPE" speedFactor="1.00" vaporized=""/>
    <tripinfo id="52" depart="52.00" departLane="420358898#0_0" departPos="5.10" departSpeed="0.00" departDelay="0.00" arrival="141.00" arrivalLane="5670594#2_0" arrivalPos="46.32" arrivalSpeed="10.37" duration="89.00" routeLength="337.87" waitingTime="44.00" waitingCount="2" stopTime="0.00" timeLoss="58.75" rerouteNo="0" devices="tripinfo_52" vType="DEFAULT_VEHTYPE" speedFactor="1.00" vaporized=""/>
    <tripinfo id="92" depart="92.00" departLane="420358898#0_0" departPos="5.10" departSpeed="0.00" departDelay="0.00" arrival="144.00" arrivalLane="5670594#2_0" arrivalPos="46.32" arrivalSpeed="10.52" duration="52.00" routeLength="337.87" waitingTime="12.00" waitingCount="1" stopTime="0.00" timeLoss="21.17" rerouteNo="0" devices="tripinfo_92" vType="DEFAULT_VEHTYPE" speedFactor="1.00" vaporized=""/>
    <tripinfo id="38" depart="38.00" departLane="421825692#0_0" departPos="5.10" departSpeed="0.00" departDelay="0.00" arrival="145.00" arrivalLane="46139037#5_1" arrivalPos="6.06" arrivalSpeed="10.24" duration="107.00" routeLength="425.49" waitingTime="50.00" waitingCount="3" stopTime="0.00" timeLoss="68.55" rerouteNo="0" devices="tripinfo_38" vType="DEFAULT_VEHTYPE" speedFactor="1.00" vaporized=""/>
    <tripinfo id="109" depart="109.00" departLane="420358898#0_0" departPos="5.10" departSpeed="0.00" departDelay="0.00" arrival="146.00" arrivalLane="5670594#2_0" arrivalPos="46.32" arrivalSpeed="11.12" duration="37.00" routeLength="337.87" waitingTime="0.00" waitingCount="0" stopTime="0.00" timeLoss="6.05" rerouteNo="0" devices="tripinfo_109" vType="DEFAULT_VEHTYPE" speedFactor="1.00" vaporized=""/>
    <tripinfo id="53" depart="53.00" departLane="5670172#0_0" departPos="5.10" departSpeed="0.00" departDelay="0.00" arrival="157.00" arrivalLane="46139037#5_1" arrivalPos="6.06" arrivalSpeed="10.85" duration="104.00" routeLength="553.26" waitingTime="43.00" waitingCount="1" stopTime="0.00" timeLoss="54.05" rerouteNo="0" devices="tripinfo_53" vType="DEFAULT_VEHTYPE" speedFactor="1.00" vaporized=""/>
    <tripinfo id="18" depart="18.00" departLane="125528659#0_0" departPos="5.10" departSpeed="0.00" departDelay="0.00" arrival="158.00" arrivalLane="5673093#4_0" arrivalPos="219.02" arrivalSpeed="10.48" duration="140.00" routeLength="909.05" waitingTime="38.00" waitingCount="3" stopTime="0.00" timeLoss="58.41" rerouteNo="0" devices="tripinfo_18" vType="DEFAULT_VEHTYPE" speedFactor="1.00" vaporized=""/>
    <tripinfo id="67" depart="67.00" departLane="352705238#0_0" departPos="5.10" departSpeed="0.00" departDelay="0.00" arrival="159.00" arrivalLane="46139037#5_1" arrivalPos="6.06" arrivalSpeed="11.04" duration="92.00" routeLength="702.46" waitingTime="15.00" waitingCount="1" stopTime="0.00" timeLoss="28.94" rerouteNo="0" devices="tripinfo_67" vType="DEFAULT_VEHTYPE" speedFactor="1.00" vaporized=""/>
    <tripinfo id="40" depart="42.00" departLane="5672184#0_0" departPos="5.10" departSpeed="0.00" departDelay="2.00" arrival="159.00" arrivalLane="479642040#3_0" arrivalPos="218.99" arrivalSpeed="10.56" duration="117.00" routeLength="951.32" waitingTime="16.00" waitingCount="1" stopTime="0.00" timeLoss="31.85" rerouteNo="0" devices="tripinfo_40" vType="DEFAULT_VEHTYPE" speedFactor="1.00" vaporized=""/>
    <tripinfo id="1" depart="1.00" departLane="165777951#0_0" departPos="5.10" departSpeed="0.00" departDelay="0.00" arrival="159.00" arrivalLane="479642040#3_1" arrivalPos="218.99" arrivalSpeed="10.21" duration="158.00" routeLength="756.03" waitingTime="68.00" waitingCount="3" stopTime="0.00" timeLoss="89.68" rerouteNo="0" devices="tripinfo_1" vType="DEFAULT_VEHTYPE" speedFactor="1.00" vaporized=""/>
    <tripinfo id="21" depart="21.00" departLane="5673089#0_0" departPos="5.10" departSpeed="0.00" departDelay="0.00" arrival="159.00" arrivalLane="5670232#5_0" arrivalPos="216.80" arrivalSpeed="10.20" duration="138.00" routeLength="1061.82" waitingTime="30.00" waitingCount="1" stopTime="0.00" timeLoss="42.55" rerouteNo="0" devices="tripinfo_21" vType="DEFAULT_VEHTYPE" speedFactor="1.00" vaporized=""/>
    <tripinfo id="49" depart="49.00" departLane="125528659#0_0" departPos="5.10" departSpeed="0.00" departDelay="0.00" arrival="161.00" arrivalLane="5673093#4_0" arrivalPos="219.02" arrivalSpeed="9.89" duration="112.00" routeLength="909.05" waitingTime="13.00" waitingCount="2" stopTime="0.00" timeLoss="30.61" rerouteNo="0" devices="tripinfo_49" vType="DEFAULT_VEHTYPE" speedFactor="1.00" vaporized=""/>
    <tripinfo id="34" depart="34.00" departLane="479642039#0_0" departPos="5.10" departSpeed="0.00" departDelay="0.00" arrival="161.00" arrivalLane="5670232#5_0" arrivalPos="216.80" arrivalSpeed="10.53" duration="127.00" routeLength="949.83" waitingTime="24.00" waitingCount="2" stopTime="0.00" timeLoss="41.70" rerouteNo="0" devices="tripinfo_34" vType="DEFAULT_VEHTYPE" speedFactor="1.00" vaporized=""/>
    <tripinfo id="8" depart="8.00" departLane="-561084838#9_0" departPos="5.10" departSpeed="0.00" departDelay="0.00" arrival="163.00" arrivalLane="5670232#5_0" arrivalPos="216.80" arrivalSpeed="10.58" duration="155.00" routeLength="826.31" waitingTime="64.00" waitingCount="2" stopTime="0.00" timeLoss="80.98" rerouteNo="0" devices="tripinfo_8" vType="DEFAULT_VEHTYPE" speedFactor="1.00" vaporized=""/>
    <tripinfo id="97" depart="97.00" departLane="-561084838#9_0" departPos="5.10" departSpeed="0.00" departDelay="0.00" arrival="166.00" arrivalLane="5669962#10_0" arrivalPos="217.18" arrivalSpeed="10.98" duration="69.00" routeLength="678.69" waitingTime="0.00" waitingCount="0" stopTime="0.00" timeLoss="7.87" rerouteNo="0" devices="tripinfo_97" vType="DEFAULT_VEHTYPE" speedFactor="1.00" vaporized=""/>
    <tripinfo id="31" depart="31.00" departLane="5669962#0_0" departPos="5.10" departSpeed="0.00" departDelay="0.00" arrival="167.00" arrivalLane="479642040#3_0" arrivalPos="218.99" arrivalSpeed="10.95" duration="136.00" routeLength="1189.94" waitingTime="6.00" waitingCount="2" stopTime="0.00" timeLoss="28.66" rerouteNo="0" devices="tripinfo_31" vType="DEFAULT_VEHTYPE" speedFactor="1.00" vaporized=""/>
    <tripinfo id="75" depart="75.00" departLane="5670172#0_0" departPos="5.10" departSpeed="0.00" departDelay="0.00" arrival="169.00" arrivalLane="5672178#3_0" arrivalPos="40.50" arrivalSpeed="9.96" duration="94.00" routeLength="626.85" waitingTime="19.00" waitingCount="2" stopTime="0.00" timeLoss="37.70" rerouteNo="0" devices="tripinfo_75" vType="DEFAULT_VEHTYPE" speedFactor="1.00" vaporized=""/>
    <tripinfo id="76" depart="78.00" departLane="5670172#0_0" departPos="5.10" departSpeed="0.00" departDelay="2.00" arrival="171.00" arrivalLane="5672178#3_0" arrivalPos="40.50" arrivalSpeed="10.61" duration="93.00" routeLength="626.85" waitingTime="14.00" waitingCount="2" stopTime="0.00" timeLoss="36.70" rerouteNo="0" devices="tripinfo_76" vType="DEFAULT_VEHTYPE" speedFactor="1.00" vaporized=""/>
    <tripinfo id="66" depart="66.00" departLane="421825692#0_0" departPos="5.10" departSpeed="0.00" departDelay="0.00" arrival="172.00" arrivalLane="561084838#9_1" arrivalPos="6.97" arrivalSpeed="10.90" duration="106.00" routeLength="546.49" waitingTime="39.00" waitingCount="2" stopTime="0.00" timeLoss="56.25" rerouteNo="0" devices="tripinfo_66" vType="DEFAULT_VEHTYPE" speedFactor="1.00" vaporized=""/>
    <tripinfo id="12" depart="12.00" departLane="5669962#0_0" departPos="5.10" departSpeed="0.00" departDelay="0.00" arrival="173.00" arrivalLane="5673093#4_0" arrivalPos="219.02" arrivalSpeed="10.60" duration="161.00" routeLength="1336.49" waitingTime="18.00" waitingCount="2" stopTime="0.00" timeLoss="41.18" rerouteNo="0" devices="tripinfo_12" vType="DEFAULT_VEHTYPE" speedFactor="1.00" vaporized=""/>
    <tripinfo id="152" depart="152.00" departLane="352705238#0_0" departPos="5.10" departSpeed="0.00" departDelay="0.00" arrival="177.00" arrivalLane="5672910#2_0" arrivalPos="73.27" arrivalSpeed="10.25" duration="25.00" routeLength="217.95" waitingTime="0.00" waitingCount="0" stopTime="0.00" timeLoss="4.88" rerouteNo="0" devices="tripinfo_152" vType="DEFAULT_VEHTYPE" speedFactor="1.00" vaporized=""/>
    <tripinfo id="42" depart="42.00" departLane="165777951#0_0" departPos="5.10" departSpeed="0.00" departDelay="0.00" arrival="180.00" arrivalLane="5669962#10_0" arrivalPos="217.18" arrivalSpeed="10.63" duration="138.00" routeLength="987.64" waitingTime="30.00" waitingCount="1" stopTime="0.00" timeLoss="48.87" rerouteNo="0" devices="tripinfo_42" vType="DEFAULT_VEHTYPE" speedFactor="1.00" vaporized=""/>
    <tripinfo id="20" depart="21.00" departLane="125528659#0_0" departPos="5.10" departSpeed="0.00" departDelay="1.00" arrival="187.00" arrivalLane="5670594#2_1" arrivalPos="46.32" arrivalSpeed="10.88" duration="166.00" routeLength="546.39" waitingTime="91.00" waitingCount="3" stopTime="0.00" timeLoss="116.56" rerouteNo="0" devices="tripinfo_20" vType="DEFAULT_VEHTYPE" speedFactor="1.00" vaporized=""/>
    <tripinfo id="3" depart="3.00" departLane="118400726#0_0" departPos="5.10" departSpeed="0.00" departDelay="0.00" arrival="187.00" arrivalLane="5670594#2_0" arrivalPos="46.32" arrivalSpeed="10.66" duration="184.00" routeLength="1040.76" waitingTime="67.00" waitingCount="2" stopTime="0.00" timeLoss="90.17" rerouteNo="0" devices="tripinfo_3" vType="DEFAULT_VEHTYPE" speedFactor="1.00" vaporized=""/>
    <tripinfo id="112" depart="112.00" departLane="5672184#0_0" departPos="5.10" departSpeed="0.00" departDelay="0.00" arrival="198.00" arrivalLane="118400726#18_0" arrivalPos="84.40" arrivalSpeed="10.90" duration="86.00" routeLength="462.35" waitingTime="27.00" waitingCount="2" stopTime="0.00" timeLoss="43.74" rerouteNo="0" devices="tripinfo_112" vType="DEFAULT_VEHTYPE" speedFactor="1.00" vaporized=""/>
    <tripinfo id="78" depart="78.00" departLane="5673089#0_0" departPos="5.10" departSpeed="0.00" departDelay="0.00" arrival="198.00" arrivalLane="25199883#5_1" arrivalPos="164.90" arrivalSpeed="10.39" duration="120.00" routeLength="821.60" waitingTime="27.00" waitingCount="2" stopTime="0.00" timeLoss="46.36" rerouteNo="0" devices="tripinfo_78" vType="DEFAULT_VEHTYPE" speedFactor="1.00" vaporized=""/>
    <tripinfo id="123" depart="123.00" departLane="352705238#0_0" departPos="5.10" departSpeed="0.00" departDelay="0.00" arrival="198.00" arrivalLane="25199883#5_0" arrivalPos="164.90" arrivalSpeed="10.98" duration="75.00" routeLength="386.61" waitingTime="32.00" waitingCount="1" stopTime="0.00" timeLoss="39.98" rerouteNo="0" devices="tripinfo_123" vType="DEFAULT_VEHTYPE" speedFactor="1.00" vaporized=""/>
    <tripinfo id="71" depart="71.00" departLane="5669962#0_0" departPos="5.10" departSpeed="0.00" departDelay="0.00" arrival="198.00" arrivalLane="5672518_0" arrivalPos="24.90" arrivalSpeed="5.52" duration="127.00" routeLength="593.49" waitingTime="53.00" waitingCount="2" stopTime="0.00" timeLoss="70.69" rerouteNo="0" devices="tripinfo_71" vType="DEFAULT_VEHTYPE" speedFactor="1.00" vaporized=""/>
    <tripinfo id="74" depart="77.00" departLane="5669962#0_0" departPos="5.10" departSpeed="0.00" departDelay="3.00" arrival="201.00" arrivalLane="5672518_0" arrivalPos="24.90" arrivalSpeed="5.09" duration="124.00" routeLength="593.49" waitingTime="47.00" waitingCount="2" stopTime="0.00" timeLoss="67.75" rerouteNo="0" devices="tripinfo_74" vType="DEFAULT_VEHTYPE" speedFactor="1.00" vaporized=""/>
    <tripinfo id="115" depart="115.00" departLane="5671659#0_0" departPos="5.10" departSpeed="0.00" departDelay="0.00" arrival="205.00" arrivalLane="561084838#9_0" arrivalPos="6.97" arrivalSpeed="10.29" duration="90.00" routeLength="744.93" waitingTime="7.00" waitingCount="1" stopTime="0.00" timeLoss="22.97" rerouteNo="0" devices="tripinfo_115" vType="DEFAULT_VEHTYPE" speedFactor="1.00" vaporized=""/>
    <tripinfo id="148" depart="148.00" departLane="-561084838#9_0" departPos="5.10" departSpeed="0.00" departDelay="0.00" arrival="206.00" arrivalLane="5672518_0" arrivalPos="24.90" arrivalSpeed="4.53" duration="58.00" routeLength="381.89" waitingTime="6.00" waitingCount="1" stopTime="0.00" timeLoss="20.82" rerouteNo="0" devices="tripinfo_148" vType="DEFAULT_VEHTYPE" speedFactor="1.00" vaporized=""/>
    <tripinfo id="160" depart="160.00" departLane="-561084838#9_0" departPos="5.10" departSpeed="0.00" departDelay="0.00" arrival="209.00" arrivalLane="5672518_0" arrivalPos="24.90" arrivalSpeed="5.24" duration="49.00" routeLength="381.89" waitingTime="1.00" waitingCount="1" stopTime="0.00" timeLoss="11.43" rerouteNo="0" devices="tripinfo_160" vType="DEFAULT_VEHTYPE" speedFactor="1.00" vaporized=""/>
    <tripinfo id="198" depart="198.00" departLane="-5672518_0" departPos="5.10" departSpeed="0.00" departDelay="0.00" arrival="210.00" arrivalLane="46139037#5_0" arrivalPos="6.06" arrivalSpeed="10.42" duration="12.00" routeLength="82.10" waitingTime="0.00" waitingCount="0" stopTime="0.00" timeLoss="2.44" rerouteNo="0" devices="tripinfo_198" vType="DEFAULT_VEHTYPE" speedFactor="1.00" vaporized=""/>
    <tripinfo id="16" depart="16.00" departLane="165777951#0_0" departPos="5.10" departSpeed="0.00" departDelay="0.00" arrival="212.00" arrivalLane="561084838#9_0" arrivalPos="6.97" arrivalSpeed="10.43" duration="196.00" routeLength="858.93" waitingTime="100.00" waitingCount="3" stopTime="0.00" timeLoss="118.76" rerouteNo="0" devices="tripinfo_16" vType="DEFAULT_VEHTYPE" speedFactor="1.00" vaporized=""/>
    <tripinfo id="23" depart="23.00" departLane="165777951#0_0" departPos="5.10" departSpeed="0.00" departDelay="0.00" arrival="212.00" arrivalLane="561084838#9_1" arrivalPos="6.97" arrivalSpeed="11.01" duration="189.00" routeLength="858.93" waitingTime="85.00" waitingCount="3" stopTime="0.00" timeLoss="111.49" rerouteNo="0" devices="tripinfo_23" vType="DEFAULT_VEHTYPE" speedFactor="1.00" vaporized=""/>
    <tripinfo id="206" depart="206.00" departLane="-5672518_0" departPos="5.10" departSpeed="0.00" departDelay="0.00" arrival="217.00" arrivalLane="5672518_0" arrivalPos="24.90" arrivalSpeed="5.39" duration="11.00" routeLength="49.37" waitingTime="0.00" waitingCount="0" stopTime="0.00" timeLoss="2.13" rerouteNo="0" devices="tripinfo_206" vType="DEFAULT_VEHTYPE" speedFactor="1.00" vaporized=""/>
    <tripinfo id="37" depart="37.00" departLane="165777951#0_0" departPos="5.10" departSpeed="0.00" departDelay="0.00" arrival="220.00" arrivalLane="561084838#9_0" arrivalPos="6.97" arrivalSpeed="10.77" duration="183.00" routeLength="858.93" waitingTime="79.00" waitingCount="2" stopTime="0.00" timeLoss="105.47" rerouteNo="0" devices="tripinfo_37" vType="DEFAULT_VEHTYPE" speedFactor="1.00" vaporized=""/>
    <tripinfo id="167" depart="167.00" departLane="-561084838#9_0" departPos="5.10" departSpeed="0.00" departDelay="0.00" arrival="220.00" arrivalLane="5672178#3_0" arrivalPos="40.50" arrivalSpeed="10.94" duration="53.00" routeLength="447.40" waitingTime="2.00" waitingCount="1" stopTime="0.00" timeLoss="12.19" rerouteNo="0" devices="tripinfo_167" vType="DEFAULT_VEHTYPE" speedFactor="1.00" vaporized=""/>
    <tripinfo id="41" depart="41.00" departLane="5670172#0_0" departPos="5.10" departSpeed="0.00" departDelay="0.00" arrival="221.00" arrivalLane="5672518_0" arrivalPos="24.90" arrivalSpeed="4.39" duration="180.00" routeLength="745.00" waitingTime="84.00" waitingCount="3" stopTime="0.00" timeLoss="110.70" rerouteNo="0" devices="tripinfo_41" vType="DEFAULT_VEHTYPE" speedFactor="1.00" vaporized=""/>
    <tripinfo id="102" depart="102.00" departLane="421825692#0_0" departPos="5.10" departSpeed="0.00" departDelay="0.00" arrival="223.00" arrivalLane="5672910#2_0" arrivalPos="73.27" arrivalSpeed="10.01" duration="121.00" routeLength="665.13" waitingTime="46.00" waitingCount="1" stopTime="0.00" timeLoss="60.83" rerouteNo="0" devices="tripinfo_102" vType="DEFAULT_VEHTYPE" speedFactor="1.00" vaporized=""/>
    <tripinfo id="62" depart="62.00" departLane="352705238#0_0" departPos="5.10" departSpeed="0.00" departDelay="0.00" arrival="224.00" arrivalLane="5672518_0" arrivalPos="24.90" arrivalSpeed="4.80" duration="162.00" routeLength="894.20" waitingTime="56.00" waitingCount="3" stopTime="0.00" timeLoss="79.29" rerouteNo="0" devices="tripinfo_62" vType="DEFAULT_VEHTYPE" speedFactor="1.00" vaporized=""/>
    <tripinfo id="35" depart="35.00" departLane="5673089#0_0" departPos="5.10" departSpeed="0.00" departDelay="0.00" arrival="225.00" arrivalLane="5670594#2_1" arrivalPos="46.32" arrivalSpeed="10.18" duration="190.00" routeLength="1133.87" waitingTime="66.00" waitingCount="3" stopTime="0.00" timeLoss="87.91" rerouteNo="0" devices="tripinfo_35" vType="DEFAULT_VEHTYPE" speedFactor="1.00" vaporized=""/>
    <tripinfo id="29" depart="29.00" departLane="5673089#0_0" departPos="5.10" departSpeed="0.00" departDelay="0.00" arrival="226.00" arrivalLane="5670594#2_0" arrivalPos="46.32" arrivalSpeed="10.60" duration="197.00" routeLength="1133.87" waitingTime="73.00" waitingCount="3" stopTime="0.00" timeLoss="94.78" rerouteNo="0" devices="tripinfo_29" vType="DEFAULT_VEHTYPE" speedFactor="1.00" vaporized=""/>
    <tripinfo id="221" depart="222.00" departLane="-561084838#9_0" departPos="5.10" departSpeed="0.00" departDelay="1.00" arrival="227.00" arrivalLane="561084838#9_2" arrivalPos="6.97" arrivalSpeed="6.68" duration="5.00" routeLength="13.52" waitingTime="0.00" waitingCount="0" stopTime="0.00" timeLoss="3.55" rerouteNo="0" devices="tripinfo_221" vType="DEFAULT_VEHTYPE" speedFactor="1.00" vaporized=""/>
    <tripinfo id="119" depart="121.00" departLane="5671659#0_0" departPos="5.10" departSpeed="0.00" departDelay="2.00" arrival="227.00" arrivalLane="118400726#18_0" arrivalPos="84.40" arrivalSpeed="10.70" duration="106.00" routeLength="765.66" waitingTime="25.00" waitingCount="1" stopTime="0.00" timeLoss="36.64" rerouteNo="0" devices="tripinfo_119" vType="DEFAULT_VEHTYPE" speedFactor="1.00" vaporized=""/>
    <tripinfo id="59" depart="59.00" departLane="5672184#0_0" departPos="5.10" departSpeed="0.00" departDelay="0.00" arrival="227.00" arrivalLane="5672518_0" arrivalPos="24.90" arrivalSpeed="5.32" duration="168.00" routeLength="821.45" waitingTime="60.00" waitingCount="3" stopTime="0.00" timeLoss="91.55" rerouteNo="0" devices="tripinfo_59" vType="DEFAULT_VEHTYPE" speedFactor="1.00" vaporized=""/>
    <tripinfo id="149" depart="149.00" departLane="5673089#0_0" departPos="5.10" departSpeed="0.00" departDelay="0.00" arrival="227.00" arrivalLane="5670897#1_0" arrivalPos="70.15" arrivalSpeed="11.05" duration="78.00" routeLength="725.66" waitingTime="0.00" waitingCount="0" stopTime="0.00" timeLoss="12.33" rerouteNo="0" devices="tripinfo_149" vType="DEFAULT_VEHTYPE" speedFactor="1.00" vaporized=""/>
    <tripinfo id="63" depart="63.00" departLane="125528659#0_0" departPos="5.10" departSpeed="0.00" departDelay="0.00" arrival="229.00" arrivalLane="561084838#9_0" arrivalPos="6.97" arrivalSpeed="10.17" duration="166.00" routeLength="1178.36" waitingTime="42.00" waitingCount="1" stopTime="0.00" timeLoss="60.11" rerouteNo="0" devices="tripinfo_63" vType="DEFAULT_VEHTYPE" speedFactor="1.00" vaporized=""/>
    <tripinfo id="177" depart="177.00" departLane="118400726#0_0" departPos="5.10" departSpeed="0.00" departDelay="0.00" arrival="230.00" arrivalLane="5670232#5_0" arrivalPos="216.80" arrivalSpeed="10.25" duration="53.00" routeLength="526.87" waitingTime="0.00" waitingCount="0" stopTime="0.00" timeLoss="5.16" rerouteNo="0" devices="tripinfo_177" vType="DEFAULT_VEHTYPE" speedFactor="1.00" vaporized=""/>
    <tripinfo id="22" depart="23.00" departLane="125528659#0_0" departPos="5.10" departSpeed="0.00" departDelay="1.00" arrival="230.00" arrivalLane="5672518_0" arrivalPos="24.90" arrivalSpeed="4.80" duration="207.00" routeLength="945.59" waitingTime="85.00" waitingCount="4" stopTime="0.00" timeLoss="119.37" rerouteNo="0" devices="tripinfo_22" vType="DEFAULT_VEHTYPE" speedFactor="1.00" vaporized=""/>
    <tripinfo id="87" depart="87.00" departLane="5669962#0_0" departPos="5.10" departSpeed="0.00" departDelay="0.00" arrival="233.00" arrivalLane="5672910#2_0" arrivalPos="73.27" arrivalSpeed="10.36" duration="146.00" routeLength="809.58" waitingTime="55.00" waitingCount="2" stopTime="0.00" timeLoss="72.81" rerouteNo="0" devices="tripinfo_87" vType="DEFAULT_VEHTYPE" speedFactor="1.00" vaporized=""/>
    <tripinfo id="138" depart="138.00" departLane="5670172#0_0" departPos="5.10" departSpeed="0.00" departDelay="0.00" arrival="235.00" arrivalLane="46139037#5_1" arrivalPos="6.06" arrivalSpeed="9.94" duration="97.00" routeLength="553.26" waitingTime="33.00" waitingCount="1" stopTime="0.00" timeLoss="46.89" rerouteNo="0" devices="tripinfo_138" vType="DEFAULT_VEHTYPE" speedFactor="1.00" vaporized=""/>
    <tripinfo id="131" depart="131.00" departLane="479642039#0_0" departPos="5.10" departSpeed="0.00" departDelay="0.00" arrival="236.00" arrivalLane="5672518_0" arrivalPos="24.90" arrivalSpeed="4.44" duration="105.00" routeLength="666.49" waitingTime="17.00" waitingCount="2" stopTime="0.00" timeLoss="42.27" rerouteNo="0" devices="tripinfo_131" vType="DEFAULT_VEHTYPE" speedFactor="1.00" vaporized=""/>
    <tripinfo id="110" depart="110.00" departLane="421825692#0_0" departPos="5.10" departSpeed="0.00" departDelay="0.00" arrival="237.00" arrivalLane="46139037#5_1" arrivalPos="6.06" arrivalSpeed="9.93" duration="127.00" routeLength="425.49" waitingTime="76.00" waitingCount="2" stopTime="0.00" timeLoss="88.65" rerouteNo="0" devices="tripinfo_110" vType="DEFAULT_VEHTYPE" speedFactor="1.00" vaporized=""/>